 Entering Gaussian System, Link 0=g16
 Initial command:
 /home/wangzhe/g16/l1.exe "/home/wangzhe/g16/Scratch/Gau-84380.inp" -scrdir="/home/wangzhe/g16/Scratch/"
 Default is to use a total of  16 processors:
                               16 via shared-memory
                                1 via Linda
 Entering Link 1 = /home/wangzhe/g16/l1.exe PID=     84383.
  
 Copyright (c) 1988-2017, Gaussian, Inc.  All Rights Reserved.
  
 This is part of the Gaussian(R) 16 program.  It is based on
 the Gaussian(R) 09 system (copyright 2009, Gaussian, Inc.),
 the Gaussian(R) 03 system (copyright 2003, Gaussian, Inc.),
 the Gaussian(R) 98 system (copyright 1998, Gaussian, Inc.),
 the Gaussian(R) 94 system (copyright 1995, Gaussian, Inc.),
 the Gaussian 92(TM) system (copyright 1992, Gaussian, Inc.),
 the Gaussian 90(TM) system (copyright 1990, Gaussian, Inc.),
 the Gaussian 88(TM) system (copyright 1988, Gaussian, Inc.),
 the Gaussian 86(TM) system (copyright 1986, Carnegie Mellon
 University), and the Gaussian 82(TM) system (copyright 1983,
 Carnegie Mellon University). Gaussian is a federally registered
 trademark of Gaussian, Inc.
  
 This software contains proprietary and confidential information,
 including trade secrets, belonging to Gaussian, Inc.
  
 This software is provided under written license and may be
 used, copied, transmitted, or stored only in accord with that
 written license.
  
 The following legend is applicable only to US Government
 contracts under FAR:
  
                    RESTRICTED RIGHTS LEGEND
  
 Use, reproduction and disclosure by the US Government is
 subject to restrictions as set forth in subparagraphs (a)
 and (c) of the Commercial Computer Software - Restricted
 Rights clause in FAR 52.227-19.
  
 Gaussian, Inc.
 340 Quinnipiac St., Bldg. 40, Wallingford CT 06492
  
  
 ---------------------------------------------------------------
 Warning -- This program may not be used in any manner that
 competes with the business of Gaussian, Inc. or will provide
 assistance to any competitor of Gaussian, Inc.  The licensee
 of this program is prohibited from giving any competitor of
 Gaussian, Inc. access to this program.  By using this program,
 the user acknowledges that Gaussian, Inc. is engaged in the
 business of creating and licensing software in the field of
 computational chemistry and represents and warrants to the
 licensee that it is not a competitor of Gaussian, Inc. and that
 it will not use this program in any manner prohibited above.
 ---------------------------------------------------------------
  

 Cite this work as:
 Gaussian 16, Revision B.01,
 M. J. Frisch, G. W. Trucks, H. B. Schlegel, G. E. Scuseria, 
 M. A. Robb, J. R. Cheeseman, G. Scalmani, V. Barone, 
 G. A. Petersson, H. Nakatsuji, X. Li, M. Caricato, A. V. Marenich, 
 J. Bloino, B. G. Janesko, R. Gomperts, B. Mennucci, H. P. Hratchian, 
 J. V. Ortiz, A. F. Izmaylov, J. L. Sonnenberg, D. Williams-Young, 
 F. Ding, F. Lipparini, F. Egidi, J. Goings, B. Peng, A. Petrone, 
 T. Henderson, D. Ranasinghe, V. G. Zakrzewski, J. Gao, N. Rega, 
 G. Zheng, W. Liang, M. Hada, M. Ehara, K. Toyota, R. Fukuda, 
 J. Hasegawa, M. Ishida, T. Nakajima, Y. Honda, O. Kitao, H. Nakai, 
 T. Vreven, K. Throssell, J. A. Montgomery, Jr., J. E. Peralta, 
 F. Ogliaro, M. J. Bearpark, J. J. Heyd, E. N. Brothers, K. N. Kudin, 
 V. N. Staroverov, T. A. Keith, R. Kobayashi, J. Normand, 
 K. Raghavachari, A. P. Rendell, J. C. Burant, S. S. Iyengar, 
 J. Tomasi, M. Cossi, J. M. Millam, M. Klene, C. Adamo, R. Cammi, 
 J. W. Ochterski, R. L. Martin, K. Morokuma, O. Farkas, 
 J. B. Foresman, and D. J. Fox, Gaussian, Inc., Wallingford CT, 2016.
 
 ******************************************
 Gaussian 16:  ES64L-G16RevB.01 20-Dec-2017
                11-Sep-2021 
 ******************************************
 %Chk=e3_04_qst3
 ----------------------------------------------------------------------
 # opt=(calcfc,qst3) freq apfd/6-311+g(2d,p) geom=connectivity int=(ult
 rafine,acc2e=12)
 ----------------------------------------------------------------------
 1/5=1,10=4,18=20,26=4,27=203,38=1,57=2/1,3;
 2/9=110,12=2,17=6,18=5,40=1/2;
 3/5=4,6=6,7=112,11=2,25=1,27=12,30=1,71=2,74=-44,75=-5,140=1/1,2,3;
 4//1;
 5/5=2,38=5,87=12/2;
 8/6=4,10=90,11=11,87=12/1;
 11/6=1,8=1,9=11,15=111,16=1,87=12/1,2,10;
 10/6=1,13=1,87=12/2;
 6/7=2,8=2,9=2,10=2,28=1,87=12/1;
 7/10=1,18=20,25=1,87=12/1,2,3,16;
 1/5=1,10=4,18=20,26=4,27=203/3(2);
 2/9=110/2;
 99//99;
 2/9=110/2;
 3/5=4,6=6,7=112,11=2,25=1,27=12,30=1,71=1,74=-44,75=-5/1,2,3;
 4/5=5,16=3,69=1/1;
 5/5=2,38=5,87=12/2;
 7/87=12/1,2,3,16;
 1/5=1,18=20,26=4,27=203/3(-5);
 2/9=110/2;
 6/7=2,8=2,9=2,10=2,19=2,28=1,87=12/1;
 99/9=1/99;
 -------
 Azirine
 -------
 Symbolic Z-matrix:
 Charge =  0 Multiplicity = 1
 C                     0.30926  -2.00181   0.08635 
 C                     1.56937  -1.66099  -0.53379 
 H                    -0.62364  -1.88334  -0.45807 
 H                     0.2794   -2.65936   0.95093 
 H                     2.40029  -1.88652  -1.19102 
 N                     1.18499  -0.74424   0.21807 
 
 ------------
 Acetonitrile
 ------------
 Symbolic Z-matrix:
 Charge =  0 Multiplicity = 1
 C                    -0.56459  -1.57582  -0.76964 
 C                    -1.41197  -0.42813  -0.48781 
 H                     0.37101  -1.4969   -0.2128 
 H                    -0.33734  -1.62112  -1.83639 
 H                    -1.07208  -2.49717  -0.47774 
 N                    -2.08231   0.4793   -0.26503 
 
 ------------------------
 TS Guess: HF QST3 result
 ------------------------
 Symbolic Z-matrix:
 Charge =  0 Multiplicity = 1
 C                     1.09027   0.00029  -0.35131 
 C                    -0.17202  -0.00012   0.19829 
 H                     1.6099    0.93286  -0.42326 
 H                     1.60988  -0.93229  -0.42369 
 H                     1.14481   0.3162    1.08786 
 N                    -1.2393    0.00025  -0.28207 
 

 GradGradGradGradGradGradGradGradGradGradGradGradGradGradGradGradGradGrad
 Berny optimization.
 Initialization pass.
                           ----------------------------
                           !    Initial Parameters    !
                           ! (Angstroms and Degrees)  !
 --------------------------                            --------------------------
 ! Name  Definition         TS        Reactant Product Derivative Info.         !
 --------------------------------------------------------------------------------
 ! R1    R(1,2)             1.3767    1.4452    1.4542 calculate D2E/DX2 analyti!
 ! R2    R(1,3)             1.07      1.0866    1.0916 calculate D2E/DX2 analyti!
 ! R3    R(1,4)             1.07      1.0866    1.0916 calculate D2E/DX2 analyti!
 ! R4    R(1,5)             1.4744    2.453     1.0916 calculate D2E/DX2 analyti!
 ! R5    R(1,6)             2.3306    1.5381    2.6042 calculate D2E/DX2 analyti!
 ! R6    R(2,5)             1.6203    1.0832    2.0968 calculate D2E/DX2 analyti!
 ! R7    R(2,6)             1.1704    1.2464    1.15   calculate D2E/DX2 analyti!
 ! A1    A(2,1,3)         118.1883  120.5226  110.0906 calculate D2E/DX2 analyti!
 ! A2    A(2,1,4)         118.1629  120.5365  110.0868 calculate D2E/DX2 analyti!
 ! A3    A(2,1,5)          69.1653   12.0999  110.0841 calculate D2E/DX2 analyti!
 ! A4    A(3,1,4)         121.2813  116.169   108.8477 calculate D2E/DX2 analyti!
 ! A5    A(3,1,5)          82.0061  117.7629  108.8485 calculate D2E/DX2 analyti!
 ! A6    A(3,1,6)         119.1724  116.2689  110.0967 calculate D2E/DX2 analyti!
 ! A7    A(4,1,5)         103.5797  117.7872  108.8488 calculate D2E/DX2 analyti!
 ! A8    A(4,1,6)         119.1691  116.2491  110.0859 calculate D2E/DX2 analyti!
 ! A9    A(1,2,5)          58.2628  151.659    29.272  calculate D2E/DX2 analyti!
 ! A10   L(1,2,6,5,-1)    223.3592  290.7503  179.9883 calculate D2E/DX2 analyti!
 ! A11   L(1,2,6,5,-2)    138.534   179.989   180.0187 calculate D2E/DX2 analyti!
 ! A12   A(5,2,6)         165.0964  139.0913  150.7163 calculate D2E/DX2 analyti!
 ! D1    D(3,1,2,5)       -68.1133  -80.185  -120.0005 calculate D2E/DX2 analyti!
 ! D2    D(4,1,2,5)        94.6591   80.2388  119.9984 calculate D2E/DX2 analyti!
 ! D3    D(2,1,4,3)      -162.215  -161.2407  120.7508 calculate D2E/DX2 analyti!
 ! D4    D(2,1,5,3)      -124.3205 -106.4137 -120.7497 calculate D2E/DX2 analyti!
 ! D5    D(2,1,5,4)       115.3154  106.3664  120.7452 calculate D2E/DX2 analyti!
 ! D6    D(3,1,5,4)      -120.3641 -147.2198 -118.5052 calculate D2E/DX2 analyti!
 ! D7    D(1,2,5,6)       138.534   179.989  -179.9813 calculate D2E/DX2 analyti!
 --------------------------------------------------------------------------------
 Trust Radius=3.00D-01 FncErr=1.00D-07 GrdErr=1.00D-06 EigMax=2.50D+02 EigMin=1.00D-04
 Number of steps in this run=     36 maximum allowed number of steps=    100.
 Search for a saddle point of order  1.
 GradGradGradGradGradGradGradGradGradGradGradGradGradGradGradGradGradGrad

                          Input orientation:                          
 ---------------------------------------------------------------------
 Center     Atomic      Atomic             Coordinates (Angstroms)
 Number     Number       Type             X           Y           Z
 ---------------------------------------------------------------------
      1          6           0        1.090268    0.000289   -0.351307
      2          6           0       -0.172015   -0.000120    0.198293
      3          1           0        1.609903    0.932862   -0.423260
      4          1           0        1.609876   -0.932292   -0.423687
      5          1           0        1.144811    0.316197    1.087859
      6          7           0       -1.239296    0.000252   -0.282069
 ---------------------------------------------------------------------
                    Distance matrix (angstroms):
                    1          2          3          4          5
     1  C    0.000000
     2  C    1.376742   0.000000
     3  H    1.069996   2.105235   0.000000
     4  H    1.070018   2.104980   1.865154   0.000000
     5  H    1.474440   1.620313   1.697075   2.014890   0.000000
     6  N    2.330592   1.170400   3.001271   3.001245   2.767759
                    6
     6  N    0.000000
 Stoichiometry    C2H3N
 Framework group  C1[X(C2H3N)]
 Deg. of freedom    12
 Full point group                 C1      NOp   1
 Largest Abelian subgroup         C1      NOp   1
 Largest concise Abelian subgroup C1      NOp   1
                         Standard orientation:                         
 ---------------------------------------------------------------------
 Center     Atomic      Atomic             Coordinates (Angstroms)
 Number     Number       Type             X           Y           Z
 ---------------------------------------------------------------------
      1          6           0       -1.035679   -0.226283    0.049369
      2          6           0        0.227059    0.296055   -0.118187
      3          1           0       -1.569525    0.018960    0.943659
      4          1           0       -1.541112   -0.611654   -0.811425
      5          1           0       -1.093464    1.234745   -0.140453
      6          7           0        1.293689   -0.151526    0.060162
 ---------------------------------------------------------------------
 Rotational constants (GHZ):          88.4506590          11.3918805          10.8616040
 Standard basis: 6-311+G(2d,p) (5D, 7F)
 There are   105 symmetry adapted cartesian basis functions of A   symmetry.
 There are    99 symmetry adapted basis functions of A   symmetry.
    99 basis functions,   150 primitive gaussians,   105 cartesian basis functions
    11 alpha electrons       11 beta electrons
       nuclear repulsion energy        60.0924080985 Hartrees.
 NAtoms=    6 NActive=    6 NUniq=    6 SFac= 1.00D+00 NAtFMM=   60 NAOKFM=F Big=F
 Integral buffers will be    131072 words long.
 Raffenetti 2 integral format.
 Two-electron integral symmetry is turned on.
 R6APFD:  NTU= -4 IXU= 1 FactS= 1.050
 Nuclear repulsion after empirical dispersion term =       60.0918196587 Hartrees.
 One-electron integrals computed using PRISM.
 NBasis=    99 RedAO= T EigKep=  1.31D-04  NBF=    99
 NBsUse=    99 1.00D-06 EigRej= -1.00D+00 NBFU=    99
 ExpMin= 4.38D-02 ExpMax= 6.29D+03 ExpMxC= 9.49D+02 IAcc=3 IRadAn=         5 AccDes= 0.00D+00
 Harris functional with IExCor= 3731 and IRadAn=       5 diagonalized for initial guess.
 HarFok:  IExCor= 3731 AccDes= 0.00D+00 IRadAn=         5 IDoV= 1 UseB2=F ITyADJ=14
 ICtDFT=  3500011 ScaDFX=  1.000000  1.000000  1.000000  1.000000
 FoFCou: FMM=F IPFlag=           0 FMFlag=      100000 FMFlg1=           0
         NFxFlg=           0 DoJE=T BraDBF=F KetDBF=T FulRan=T
         wScrn=  0.000000 ICntrl=       500 IOpCl=  0 I1Cent=   200000004 NGrid=           0
         NMat0=    1 NMatS0=      1 NMatT0=    0 NMatD0=    1 NMtDS0=    0 NMtDT0=    0
 Petite list used in FoFCou.
 Keep R1 ints in memory in canonical form, NReq=27144983.
 Requested convergence on RMS density matrix=1.00D-08 within 128 cycles.
 Requested convergence on MAX density matrix=1.00D-06.
 Requested convergence on             energy=1.00D-06.
 No special actions if energy rises.
 SCF Done:  E(RAPFD) =  -132.527007554     A.U. after   12 cycles
            NFock= 12  Conv=0.30D-08     -V/T= 2.0027
 DoSCS=F DFT=T ScalE2(SS,OS)=  1.000000  1.000000
 Range of M.O.s used for correlation:     1    99
 NBasis=    99 NAE=    11 NBE=    11 NFC=     0 NFV=     0
 NROrb=     99 NOA=    11 NOB=    11 NVA=    88 NVB=    88

 **** Warning!!: The largest alpha MO coefficient is  0.39363990D+02

 R6APFD:  NTU= -4 IXU= 1 FactS= 1.050
 Symmetrizing basis deriv contribution to polar:
 IMax=3 JMax=2 DiffMx= 0.00D+00
 G2DrvN: will do     7 centers at a time, making    1 passes.
 Calling FoFCou, ICntrl=  3107 FMM=F I1Cent=   0 AccDes= 1.00D-12.
 End of G2Drv F.D. properties file   721 does not exist.
 End of G2Drv F.D. properties file   722 does not exist.
 End of G2Drv F.D. properties file   788 does not exist.
          IDoAtm=111111
          Differentiating once with respect to nuclear coordinates.
 Keep R1 ints in memory in canonical form, NReq=27094595.
          There are    21 degrees of freedom in the 1st order CPHF.  IDoFFX=6 NUNeed=     0.
     15 vectors produced by pass  0 Test12= 4.61D-15 4.76D-09 XBig12= 1.91D-01 1.39D-01.
 AX will form    15 AO Fock derivatives at one time.
     15 vectors produced by pass  1 Test12= 4.61D-15 4.76D-09 XBig12= 4.32D-02 1.02D-01.
     15 vectors produced by pass  2 Test12= 4.61D-15 4.76D-09 XBig12= 7.01D-04 8.12D-03.
     15 vectors produced by pass  3 Test12= 4.61D-15 4.76D-09 XBig12= 6.91D-06 6.07D-04.
     15 vectors produced by pass  4 Test12= 4.61D-15 4.76D-09 XBig12= 3.02D-08 4.07D-05.
     15 vectors produced by pass  5 Test12= 4.61D-15 4.76D-09 XBig12= 6.74D-11 1.66D-06.
      4 vectors produced by pass  6 Test12= 4.61D-15 4.76D-09 XBig12= 1.22D-13 7.47D-08.
 InvSVY:  IOpt=1 It=  1 EMax= 1.11D-15
 Solved reduced A of dimension    94 with    15 vectors.
 End of Minotr F.D. properties file   721 does not exist.
 End of Minotr F.D. properties file   722 does not exist.
 End of Minotr F.D. properties file   788 does not exist.

 **********************************************************************

            Population analysis using the SCF Density.

 **********************************************************************

 Orbital symmetries:
       Occupied  (A) (A) (A) (A) (A) (A) (A) (A) (A) (A) (A)
       Virtual   (A) (A) (A) (A) (A) (A) (A) (A) (A) (A) (A) (A)
                 (A) (A) (A) (A) (A) (A) (A) (A) (A) (A) (A) (A)
                 (A) (A) (A) (A) (A) (A) (A) (A) (A) (A) (A) (A)
                 (A) (A) (A) (A) (A) (A) (A) (A) (A) (A) (A) (A)
                 (A) (A) (A) (A) (A) (A) (A) (A) (A) (A) (A) (A)
                 (A) (A) (A) (A) (A) (A) (A) (A) (A) (A) (A) (A)
                 (A) (A) (A) (A) (A) (A) (A) (A) (A) (A) (A) (A)
                 (A) (A) (A) (A)
 The electronic state is 1-A.
 Alpha  occ. eigenvalues --  -14.34839 -10.27055 -10.24449  -0.93978  -0.80308
 Alpha  occ. eigenvalues --   -0.55030  -0.51662  -0.44320  -0.38343  -0.34510
 Alpha  occ. eigenvalues --   -0.26878
 Alpha virt. eigenvalues --   -0.06350  -0.01888   0.00914   0.02418   0.04771
 Alpha virt. eigenvalues --    0.05231   0.06568   0.08809   0.09973   0.10869
 Alpha virt. eigenvalues --    0.15567   0.15846   0.18393   0.19257   0.22754
 Alpha virt. eigenvalues --    0.22933   0.26664   0.31050   0.34368   0.45411
 Alpha virt. eigenvalues --    0.45613   0.47802   0.49846   0.53628   0.55605
 Alpha virt. eigenvalues --    0.58369   0.60561   0.63377   0.64654   0.70566
 Alpha virt. eigenvalues --    0.75243   0.77347   0.80587   0.84832   0.88006
 Alpha virt. eigenvalues --    0.91070   0.96737   0.99123   1.02602   1.10486
 Alpha virt. eigenvalues --    1.18639   1.21560   1.29270   1.30910   1.42879
 Alpha virt. eigenvalues --    1.45445   1.50109   1.65947   1.73769   1.74591
 Alpha virt. eigenvalues --    1.78913   1.96055   2.00326   2.04609   2.09307
 Alpha virt. eigenvalues --    2.24384   2.30929   2.32447   2.56527   2.64558
 Alpha virt. eigenvalues --    2.74006   2.89438   2.99585   3.03307   3.04330
 Alpha virt. eigenvalues --    3.17316   3.23346   3.25938   3.30995   3.40489
 Alpha virt. eigenvalues --    3.48054   3.50449   3.55224   3.71702   3.84187
 Alpha virt. eigenvalues --    4.00523   4.08719   4.17929   4.41194   4.70878
 Alpha virt. eigenvalues --    4.83163   4.83808   5.09616   5.15048   5.64909
 Alpha virt. eigenvalues --   23.97180  24.14386  35.76053
          Condensed to atoms (all electrons):
               1          2          3          4          5          6
     1  C    5.332498  -0.120966   0.346530   0.396711   0.554977  -0.055850
     2  C   -0.120966   5.711784   0.029442  -0.024117  -0.381963   0.605565
     3  H    0.346530   0.029442   0.498456  -0.028254  -0.027959  -0.010705
     4  H    0.396711  -0.024117  -0.028254   0.484597  -0.009727  -0.003023
     5  H    0.554977  -0.381963  -0.027959  -0.009727   0.716253  -0.003805
     6  N   -0.055850   0.605565  -0.010705  -0.003023  -0.003805   6.722698
 Mulliken charges:
               1
     1  C   -0.453901
     2  C    0.180255
     3  H    0.192490
     4  H    0.183813
     5  H    0.152223
     6  N   -0.254880
 Sum of Mulliken charges =  -0.00000
 Mulliken charges with hydrogens summed into heavy atoms:
               1
     1  C    0.074625
     2  C    0.180255
     6  N   -0.254880
 APT charges:
               1
     1  C   -1.023044
     2  C    0.143895
     3  H    0.425408
     4  H    0.409078
     5  H    0.186729
     6  N   -0.142066
 Sum of APT charges =  -0.00000
 APT charges with hydrogens summed into heavy atoms:
               1
     1  C   -0.001830
     2  C    0.143895
     6  N   -0.142066
 Electronic spatial extent (au):  <R**2>=            146.4951
 Charge=              0.0000 electrons
 Dipole moment (field-independent basis, Debye):
    X=             -3.7497    Y=              0.3635    Z=             -0.0842  Tot=              3.7682
 Quadrupole moment (field-independent basis, Debye-Ang):
   XX=            -21.6161   YY=            -17.9757   ZZ=            -17.7722
   XY=              0.7113   XZ=             -0.3981   YZ=              0.6284
 Traceless Quadrupole moment (field-independent basis, Debye-Ang):
   XX=             -2.4948   YY=              1.1456   ZZ=              1.3491
   XY=              0.7113   XZ=             -0.3981   YZ=              0.6284
 Octapole moment (field-independent basis, Debye-Ang**2):
  XXX=             -9.0857  YYY=             -0.5101  ZZZ=              0.6471  XYY=             -0.9677
  XXY=             -1.7752  XXZ=              0.6553  XZZ=             -2.3004  YZZ=             -0.8588
  YYZ=             -0.3070  XYZ=             -1.0867
 Hexadecapole moment (field-independent basis, Debye-Ang**3):
 XXXX=           -159.0568 YYYY=            -34.0461 ZZZZ=            -25.1705 XXXY=              5.6752
 XXXZ=             -2.3552 YYYX=              0.5754 YYYZ=              0.7082 ZZZX=             -0.7453
 ZZZY=              1.4873 XXYY=            -31.4208 XXZZ=            -26.2166 YYZZ=            -10.2902
 XXYZ=              2.2267 YYXZ=              0.4642 ZZXY=              0.9369
 N-N= 6.009181965870D+01 E-N=-4.287904807380D+02  KE= 1.321747993962D+02
  Exact polarizability:   0.000   0.000   0.000   0.000   0.000   0.000
 Approx polarizability:  70.140 -15.117  58.882   4.454  -4.934  30.951
 R6APFD:  NTU= -4 IXU= 1 FactS= 1.050
 Calling FoFJK, ICntrl=    100147 FMM=F ISym2X=0 I1Cent= 0 IOpClX= 0 NMat=1 NMatS=1 NMatT=0.
 ***** Axes restored to original set *****
 -------------------------------------------------------------------
 Center     Atomic                   Forces (Hartrees/Bohr)
 Number     Number              X              Y              Z
 -------------------------------------------------------------------
      1        6           0.072090060    0.019590674    0.119409922
      2        6          -0.087777676   -0.003495139   -0.103640351
      3        1           0.002176204    0.011162816   -0.022949520
      4        1           0.008365895   -0.007432096   -0.003284343
      5        1           0.033149213   -0.020049929   -0.040287966
      6        7          -0.028003695    0.000223674    0.050752258
 -------------------------------------------------------------------
 Cartesian Forces:  Max     0.119409922 RMS     0.050317897
 FormGI is forming the generalized inverse of G from B-inverse, IUseBI=4.

 GradGradGradGradGradGradGradGradGradGradGradGradGradGradGradGradGradGrad
 Berny optimization.
 Internal  Forces:  Max     0.061269040 RMS     0.023039990
 Search for a saddle point.
 Step number   1 out of a maximum of   36
 All quantities printed in internal units (Hartrees-Bohrs-Radians)
 Second derivative matrix not updated -- analytic derivatives used.
 ITU=  0
 LST/QST climbing along tangent vector
     Eigenvalues ---   -0.02572   0.01727   0.01770   0.02530   0.03065
     Eigenvalues ---    0.04104   0.05221   0.05545   0.23507   0.39454
     Eigenvalues ---    0.39545   0.844081000.000001000.000001000.00000
     Eigenvalues --- 1000.000001000.000001000.000001000.000001000.00000
     Eigenvalues --- 1000.000001000.000001000.000001000.000001000.00000
     Eigenvalues --- 1000.00000
 Eigenvectors required to have negative eigenvalues:
                          D7        A11       A12       A10       R6
   1                    0.47405   0.47405  -0.46381  -0.32721  -0.25576
                          R5        R4        A8        A3        A9
   1                    0.20963   0.16293   0.15443  -0.15114   0.13660
 QST in optimization variable space.
 Eigenvectors 1 and   2 swapped, overlap=  1.0000
                        Tangent   TS vect  // Eig F  Eigenval
   1         R1         0.03723  -0.03723  -0.10270   0.01727
   2         R2         0.00635  -0.00635   0.00464  -0.02572
   3         R3         0.00635  -0.00635  -0.01097   0.01770
   4         R4        -0.47981   0.47981  -0.00679   0.02530
   5         R5         0.33433  -0.33433   0.00936   0.03065
   6         R6         0.39872  -0.39872  -0.00585   0.04104
   7         R7        -0.02345   0.02345  -0.00418   0.05221
   8         A1         0.08684  -0.08684   0.00340   0.05545
   9         A2         0.01700  -0.01700   0.00716   0.23507
  10         A3         0.30314  -0.30314   0.00254   0.39454
  11         A4        -0.01259   0.01259   0.00696   0.39545
  12         A5         0.01034  -0.01034  -0.01920   0.84408
  13         A6        -0.00618   0.00618  -0.000001000.00000
  14         A7        -0.00654   0.00654   0.000001000.00000
  15         A8         0.00030  -0.00030  -0.000001000.00000
  16         A9        -0.30243   0.30243   0.000001000.00000
  17         A10       -0.33281   0.33281   0.000001000.00000
  18         A11        0.09031  -0.09031   0.000001000.00000
  19         A12       -0.03038   0.03038   0.000001000.00000
  20         D1        -0.18051   0.18051  -0.000001000.00000
  21         D2         0.13994  -0.13994  -0.000001000.00000
  22         D3        -0.34889   0.34889   0.000001000.00000
  23         D4         0.03592  -0.03592  -0.000001000.00000
  24         D5         0.04669  -0.04669  -0.000001000.00000
  25         D6         0.01077  -0.01077   0.000001000.00000
  26         D7         0.09031  -0.09031  -0.000001000.00000
 RFO step:  Lambda0=1.116960754D-01 Lambda=-2.67898565D-02.
 Linear search not attempted -- option 19 set.
 Maximum step size (   0.300) exceeded in Quadratic search.
    -- Step size scaled by   0.254
 Iteration  1 RMS(Cart)=  0.04896546 RMS(Int)=  0.00415394
 Iteration  2 RMS(Cart)=  0.00173414 RMS(Int)=  0.00173429
 Iteration  3 RMS(Cart)=  0.00000874 RMS(Int)=  0.00173424
 Iteration  4 RMS(Cart)=  0.00000001 RMS(Int)=  0.00173424
 Variable       Old X    -DE/DX   Delta X   Delta X   Delta X     New X
                                 (Linear)    (Quad)   (Total)
    R1        2.60167   0.03102   0.00000  -0.00822  -0.00762   2.59405
    R2        2.02200   0.01233   0.00000   0.00183   0.00183   2.02383
    R3        2.02204   0.01076   0.00000   0.00243   0.00243   2.02447
    R4        2.78629  -0.06127   0.00000   0.12358   0.12352   2.90981
    R5        4.40418   0.04150   0.00000  -0.03701  -0.03609   4.36809
    R6        3.06195   0.03034   0.00000  -0.18838  -0.18965   2.87230
    R7        2.21174  -0.03260   0.00000   0.00100   0.00019   2.21193
    A1        2.06277   0.00774   0.00000  -0.02609  -0.02842   2.03435
    A2        2.06233  -0.00185   0.00000  -0.00763  -0.01108   2.05125
    A3        1.20716   0.02317   0.00000  -0.11713  -0.11448   1.09268
    A4        2.11676  -0.00154   0.00000  -0.00282  -0.00480   2.11196
    A5        1.43128   0.00373   0.00000   0.01543   0.01406   1.44533
    A6        2.07995  -0.00300   0.00000  -0.02671  -0.02745   2.05250
    A7        1.80781  -0.01194   0.00000  -0.02007  -0.02101   1.78680
    A8        2.07989   0.00583   0.00000   0.04245   0.03884   2.11873
    A9        1.01688  -0.03732   0.00000   0.09911   0.10165   1.11853
   A10        3.89835  -0.04561   0.00000   0.01419   0.01525   3.91361
   A11        2.41788   0.00889   0.00000   0.05123   0.05094   2.46881
   A12        2.88148  -0.00830   0.00000  -0.08493  -0.08639   2.79508
    D1       -1.18880  -0.01691   0.00000   0.04925   0.04773  -1.14107
    D2        1.65211  -0.00178   0.00000  -0.08045  -0.07919   1.57292
    D3       -2.83119  -0.01728   0.00000   0.13812   0.13714  -2.69404
    D4       -2.16980   0.00310   0.00000  -0.01168  -0.01110  -2.18090
    D5        2.01263   0.00370   0.00000  -0.01225  -0.00924   2.00339
    D6       -2.10075   0.00060   0.00000  -0.00057   0.00186  -2.09889
    D7        2.41788   0.00889   0.00000   0.05123   0.05094   2.46881
         Item               Value     Threshold  Converged?
 Maximum Force            0.061269     0.000450     NO 
 RMS     Force            0.023040     0.000300     NO 
 Maximum Displacement     0.175767     0.001800     NO 
 RMS     Displacement     0.049007     0.001200     NO 
 Predicted change in Energy= 2.234524D-02
 GradGradGradGradGradGradGradGradGradGradGradGradGradGradGradGradGradGrad

                          Input orientation:                          
 ---------------------------------------------------------------------
 Center     Atomic      Atomic             Coordinates (Angstroms)
 Number     Number       Type             X           Y           Z
 ---------------------------------------------------------------------
      1          6           0        1.094969   -0.009170   -0.398935
      2          6           0       -0.134357   -0.010665    0.211875
      3          1           0        1.605389    0.931182   -0.445526
      4          1           0        1.636824   -0.933011   -0.423396
      5          1           0        1.051799    0.308331    1.107161
      6          7           0       -1.211077    0.030520   -0.245350
 ---------------------------------------------------------------------
                    Distance matrix (angstroms):
                    1          2          3          4          5
     1  C    0.000000
     2  C    1.372711   0.000000
     3  H    1.070963   2.084699   0.000000
     4  H    1.071301   2.095560   1.864589   0.000000
     5  H    1.539804   1.519954   1.762170   2.055672   0.000000
     6  N    2.311495   1.170502   2.963738   3.011749   2.650862
                    6
     6  N    0.000000
 Stoichiometry    C2H3N
 Framework group  C1[X(C2H3N)]
 Deg. of freedom    12
 Full point group                 C1      NOp   1
 Largest Abelian subgroup         C1      NOp   1
 Largest concise Abelian subgroup C1      NOp   1
                         Standard orientation:                         
 ---------------------------------------------------------------------
 Center     Atomic      Atomic             Coordinates (Angstroms)
 Number     Number       Type             X           Y           Z
 ---------------------------------------------------------------------
      1          6           0       -1.032847   -0.240648    0.040906
      2          6           0        0.218108    0.302841   -0.114223
      3          1           0       -1.542109   -0.016740    0.956044
      4          1           0       -1.577712   -0.490538   -0.846992
      5          1           0       -0.933450    1.293039   -0.053538
      6          7           0        1.277386   -0.165560    0.054913
 ---------------------------------------------------------------------
 Rotational constants (GHZ):          84.9114552          11.6356375          11.0464932
 Standard basis: 6-311+G(2d,p) (5D, 7F)
 There are   105 symmetry adapted cartesian basis functions of A   symmetry.
 There are    99 symmetry adapted basis functions of A   symmetry.
    99 basis functions,   150 primitive gaussians,   105 cartesian basis functions
    11 alpha electrons       11 beta electrons
       nuclear repulsion energy        60.3172496897 Hartrees.
 NAtoms=    6 NActive=    6 NUniq=    6 SFac= 1.00D+00 NAtFMM=   60 NAOKFM=F Big=F
 Integral buffers will be    131072 words long.
 Raffenetti 2 integral format.
 Two-electron integral symmetry is turned on.
 R6APFD:  NTU= -4 IXU= 1 FactS= 1.050
 Nuclear repulsion after empirical dispersion term =       60.3166753517 Hartrees.
 One-electron integrals computed using PRISM.
 NBasis=    99 RedAO= T EigKep=  1.36D-04  NBF=    99
 NBsUse=    99 1.00D-06 EigRej= -1.00D+00 NBFU=    99
 Initial guess from the checkpoint file:  "e3_04_qst3.chk"
 B after Tr=    -0.000000    0.000000   -0.000000
         Rot=    0.999417   -0.033122   -0.001593    0.008141 Ang=  -3.91 deg.
 ExpMin= 4.38D-02 ExpMax= 6.29D+03 ExpMxC= 9.49D+02 IAcc=3 IRadAn=         5 AccDes= 0.00D+00
 Harris functional with IExCor= 3731 and IRadAn=       5 diagonalized for initial guess.
 HarFok:  IExCor= 3731 AccDes= 0.00D+00 IRadAn=         5 IDoV= 1 UseB2=F ITyADJ=14
 ICtDFT=  3500011 ScaDFX=  1.000000  1.000000  1.000000  1.000000
 FoFCou: FMM=F IPFlag=           0 FMFlag=      100000 FMFlg1=           0
         NFxFlg=           0 DoJE=T BraDBF=F KetDBF=T FulRan=T
         wScrn=  0.000000 ICntrl=       500 IOpCl=  0 I1Cent=   200000004 NGrid=           0
         NMat0=    1 NMatS0=      1 NMatT0=    0 NMatD0=    1 NMtDS0=    0 NMtDT0=    0
 Petite list used in FoFCou.
 Keep R1 ints in memory in canonical form, NReq=27144983.
 Requested convergence on RMS density matrix=1.00D-08 within 128 cycles.
 Requested convergence on MAX density matrix=1.00D-06.
 Requested convergence on             energy=1.00D-06.
 No special actions if energy rises.
 SCF Done:  E(RAPFD) =  -132.504966097     A.U. after   12 cycles
            NFock= 12  Conv=0.35D-08     -V/T= 2.0022
 R6APFD:  NTU= -4 IXU= 1 FactS= 1.050
 Calling FoFJK, ICntrl=      2127 FMM=F ISym2X=0 I1Cent= 0 IOpClX= 0 NMat=1 NMatS=1 NMatT=0.
 ***** Axes restored to original set *****
 -------------------------------------------------------------------
 Center     Atomic                   Forces (Hartrees/Bohr)
 Number     Number              X              Y              Z
 -------------------------------------------------------------------
      1        6           0.081348298    0.013707134    0.100550185
      2        6          -0.088471753   -0.001915502   -0.096662171
      3        1           0.005388574    0.010145442   -0.019717007
      4        1           0.010781530   -0.006775710   -0.002617087
      5        1           0.030540918   -0.015670655   -0.035108694
      6        7          -0.039587567    0.000509291    0.053554775
 -------------------------------------------------------------------
 Cartesian Forces:  Max     0.100550185 RMS     0.048089315

 GradGradGradGradGradGradGradGradGradGradGradGradGradGradGradGradGradGrad
 Berny optimization.
 FormGI is forming the generalized inverse of G from B-inverse, IUseBI=4.
 Internal  Forces:  Max     0.054308804 RMS     0.023383747
 Search for a saddle point.
 Step number   2 out of a maximum of   36
 All quantities printed in internal units (Hartrees-Bohrs-Radians)
 Update second derivatives using D2CorX and points    1    2
 ITU=  0  0
 LST/QST climbing along tangent vector
     Eigenvalues ---   -0.02498   0.01303   0.01686   0.02454   0.02999
     Eigenvalues ---    0.04111   0.05018   0.05526   0.23249   0.39453
     Eigenvalues ---    0.39542   0.842971000.000001000.000001000.00000
     Eigenvalues --- 1000.000001000.000001000.000001000.000001000.00000
     Eigenvalues --- 1000.000001000.000001000.000001000.000001000.00000
     Eigenvalues --- 1000.00000
 Eigenvectors required to have negative eigenvalues:
                          A12       A11       D7        A10       R6
   1                    0.47260  -0.45949  -0.45949   0.34311   0.27996
                          R5        A3        A8        A9        R4
   1                   -0.24993   0.13986  -0.13218  -0.12949  -0.11034
 QST in optimization variable space.
 Eigenvectors 1 and   2 swapped, overlap=  1.0000
                        Tangent   TS vect  // Eig F  Eigenval
   1         R1         0.03433  -0.03433  -0.10148   0.01303
   2         R2         0.00420  -0.00420  -0.01311  -0.02498
   3         R3         0.00415  -0.00415  -0.00948   0.01686
   4         R4        -0.50457   0.50457  -0.00534   0.02454
   5         R5         0.34671  -0.34671   0.00808   0.02999
   6         R6         0.40743  -0.40743  -0.00530   0.04111
   7         R7        -0.02245   0.02245  -0.00353   0.05018
   8         A1         0.08932  -0.08932   0.00422   0.05526
   9         A2         0.03187  -0.03187   0.01193   0.23249
  10         A3         0.29740  -0.29740   0.00291   0.39453
  11         A4        -0.00763   0.00763   0.00740   0.39542
  12         A5        -0.01723   0.01723  -0.01898   0.84297
  13         A6         0.00852  -0.00852  -0.000001000.00000
  14         A7        -0.00974   0.00974  -0.000001000.00000
  15         A8        -0.00095   0.00095   0.000001000.00000
  16         A9        -0.33164   0.33164   0.000001000.00000
  17         A10       -0.33930   0.33930  -0.000001000.00000
  18         A11        0.04763  -0.04763   0.000001000.00000
  19         A12       -0.00766   0.00766  -0.000001000.00000
  20         D1        -0.13912   0.13912  -0.000001000.00000
  21         D2         0.12611  -0.12611   0.000001000.00000
  22         D3        -0.30302   0.30302  -0.000001000.00000
  23         D4         0.03044  -0.03044  -0.000001000.00000
  24         D5         0.04118  -0.04118   0.000001000.00000
  25         D6         0.01074  -0.01074  -0.000001000.00000
  26         D7         0.04763  -0.04763  -0.000001000.00000
 RFO step:  Lambda0=1.082007477D-01 Lambda=-3.15219018D-02.
 Linear search not attempted -- option 19 set.
 Maximum step size (   0.300) exceeded in Quadratic search.
    -- Step size scaled by   0.250
 Iteration  1 RMS(Cart)=  0.04977467 RMS(Int)=  0.00398076
 Iteration  2 RMS(Cart)=  0.00181549 RMS(Int)=  0.00152621
 Iteration  3 RMS(Cart)=  0.00000887 RMS(Int)=  0.00152614
 Iteration  4 RMS(Cart)=  0.00000001 RMS(Int)=  0.00152614
 Variable       Old X    -DE/DX   Delta X   Delta X   Delta X     New X
                                 (Linear)    (Quad)   (Total)
    R1        2.59405   0.03584   0.00000  -0.00508  -0.00466   2.58939
    R2        2.02383   0.01233   0.00000   0.00232   0.00232   2.02615
    R3        2.02447   0.01136   0.00000   0.00314   0.00314   2.02761
    R4        2.90981  -0.05431   0.00000   0.12921   0.12851   3.03831
    R5        4.36809   0.05229   0.00000  -0.03009  -0.02897   4.33912
    R6        2.87230   0.02641   0.00000  -0.18349  -0.18414   2.68816
    R7        2.21193  -0.03120   0.00000  -0.00073  -0.00167   2.21026
    A1        2.03435   0.00841   0.00000  -0.02410  -0.02565   2.00870
    A2        2.05125  -0.00040   0.00000  -0.01110  -0.01298   2.03827
    A3        1.09268   0.01852   0.00000  -0.11078  -0.10851   0.98417
    A4        2.11196  -0.00285   0.00000  -0.00616  -0.00743   2.10453
    A5        1.44533   0.00417   0.00000   0.02565   0.02430   1.46963
    A6        2.05250  -0.00267   0.00000  -0.02699  -0.02658   2.02592
    A7        1.78680  -0.00967   0.00000  -0.01151  -0.01203   1.77477
    A8        2.11873   0.00553   0.00000   0.03320   0.02977   2.14850
    A9        1.11853  -0.03759   0.00000   0.10472   0.10791   1.22644
   A10        3.91361  -0.04970   0.00000   0.01457   0.01599   3.92960
   A11        2.46881   0.01139   0.00000   0.05950   0.05900   2.52781
   A12        2.79508  -0.01210   0.00000  -0.09015  -0.09192   2.70317
    D1       -1.14107  -0.01359   0.00000   0.03271   0.03158  -1.10949
    D2        1.57292  -0.00216   0.00000  -0.06615  -0.06523   1.50769
    D3       -2.69404  -0.01487   0.00000   0.10815   0.10718  -2.58686
    D4       -2.18090   0.00214   0.00000  -0.00884  -0.00771  -2.18861
    D5        2.00339   0.00414   0.00000  -0.00737  -0.00459   1.99880
    D6       -2.09889   0.00199   0.00000   0.00147   0.00312  -2.09577
    D7        2.46881   0.01139   0.00000   0.05950   0.05900   2.52781
         Item               Value     Threshold  Converged?
 Maximum Force            0.054309     0.000450     NO 
 RMS     Force            0.023384     0.000300     NO 
 Maximum Displacement     0.184083     0.001800     NO 
 RMS     Displacement     0.049778     0.001200     NO 
 Predicted change in Energy= 1.813032D-02
 GradGradGradGradGradGradGradGradGradGradGradGradGradGradGradGradGradGrad

                          Input orientation:                          
 ---------------------------------------------------------------------
 Center     Atomic      Atomic             Coordinates (Angstroms)
 Number     Number       Type             X           Y           Z
 ---------------------------------------------------------------------
      1          6           0        1.101594   -0.017833   -0.440539
      2          6           0       -0.096717   -0.017459    0.224006
      3          1           0        1.603615    0.929002   -0.473288
      4          1           0        1.662084   -0.932655   -0.426311
      5          1           0        0.954386    0.298375    1.128977
      6          7           0       -1.181415    0.057758   -0.207016
 ---------------------------------------------------------------------
                    Distance matrix (angstroms):
                    1          2          3          4          5
     1  C    0.000000
     2  C    1.370244   0.000000
     3  H    1.072191   2.067156   0.000000
     4  H    1.072964   2.086594   1.863167   0.000000
     5  H    1.607806   1.422513   1.840228   2.105989   0.000000
     6  N    2.296166   1.169618   2.930249   3.019022   2.530696
                    6
     6  N    0.000000
 Stoichiometry    C2H3N
 Framework group  C1[X(C2H3N)]
 Deg. of freedom    12
 Full point group                 C1      NOp   1
 Largest Abelian subgroup         C1      NOp   1
 Largest concise Abelian subgroup C1      NOp   1
                         Standard orientation:                         
 ---------------------------------------------------------------------
 Center     Atomic      Atomic             Coordinates (Angstroms)
 Number     Number       Type             X           Y           Z
 ---------------------------------------------------------------------
      1          6           0       -1.033622   -0.248881    0.030996
      2          6           0        0.210479    0.308371   -0.107761
      3          1           0       -1.517824   -0.052688    0.967292
      4          1           0       -1.609530   -0.375264   -0.865445
      5          1           0       -0.764090    1.336158    0.024194
      6          7           0        1.261471   -0.180735    0.047793
 ---------------------------------------------------------------------
 Rotational constants (GHZ):          82.2843003          11.8525336          11.2063059
 Standard basis: 6-311+G(2d,p) (5D, 7F)
 There are   105 symmetry adapted cartesian basis functions of A   symmetry.
 There are    99 symmetry adapted basis functions of A   symmetry.
    99 basis functions,   150 primitive gaussians,   105 cartesian basis functions
    11 alpha electrons       11 beta electrons
       nuclear repulsion energy        60.5471003712 Hartrees.
 NAtoms=    6 NActive=    6 NUniq=    6 SFac= 1.00D+00 NAtFMM=   60 NAOKFM=F Big=F
 Integral buffers will be    131072 words long.
 Raffenetti 2 integral format.
 Two-electron integral symmetry is turned on.
 R6APFD:  NTU= -4 IXU= 1 FactS= 1.050
 Nuclear repulsion after empirical dispersion term =       60.5465535599 Hartrees.
 One-electron integrals computed using PRISM.
 NBasis=    99 RedAO= T EigKep=  1.39D-04  NBF=    99
 NBsUse=    99 1.00D-06 EigRej= -1.00D+00 NBFU=    99
 Initial guess from the checkpoint file:  "e3_04_qst3.chk"
 B after Tr=     0.000000   -0.000000    0.000000
         Rot=    0.999503   -0.030138   -0.001865    0.009101 Ang=  -3.61 deg.
 ExpMin= 4.38D-02 ExpMax= 6.29D+03 ExpMxC= 9.49D+02 IAcc=3 IRadAn=         5 AccDes= 0.00D+00
 Harris functional with IExCor= 3731 and IRadAn=       5 diagonalized for initial guess.
 HarFok:  IExCor= 3731 AccDes= 0.00D+00 IRadAn=         5 IDoV= 1 UseB2=F ITyADJ=14
 ICtDFT=  3500011 ScaDFX=  1.000000  1.000000  1.000000  1.000000
 FoFCou: FMM=F IPFlag=           0 FMFlag=      100000 FMFlg1=           0
         NFxFlg=           0 DoJE=T BraDBF=F KetDBF=T FulRan=T
         wScrn=  0.000000 ICntrl=       500 IOpCl=  0 I1Cent=   200000004 NGrid=           0
         NMat0=    1 NMatS0=      1 NMatT0=    0 NMatD0=    1 NMtDS0=    0 NMtDT0=    0
 Petite list used in FoFCou.
 Keep R1 ints in memory in canonical form, NReq=27144983.
 Requested convergence on RMS density matrix=1.00D-08 within 128 cycles.
 Requested convergence on MAX density matrix=1.00D-06.
 Requested convergence on             energy=1.00D-06.
 No special actions if energy rises.
 SCF Done:  E(RAPFD) =  -132.487505203     A.U. after   11 cycles
            NFock= 11  Conv=0.71D-08     -V/T= 2.0017
 R6APFD:  NTU= -4 IXU= 1 FactS= 1.050
 Calling FoFJK, ICntrl=      2127 FMM=F ISym2X=0 I1Cent= 0 IOpClX= 0 NMat=1 NMatS=1 NMatT=0.
 ***** Axes restored to original set *****
 -------------------------------------------------------------------
 Center     Atomic                   Forces (Hartrees/Bohr)
 Number     Number              X              Y              Z
 -------------------------------------------------------------------
      1        6           0.092584236    0.007421684    0.076774894
      2        6          -0.081697433    0.000581214   -0.081284025
      3        1           0.008326495    0.008872087   -0.016532145
      4        1           0.013149050   -0.005735411   -0.002074797
      5        1           0.022366916   -0.012742676   -0.031472694
      6        7          -0.054729264    0.001603102    0.054588767
 -------------------------------------------------------------------
 Cartesian Forces:  Max     0.092584236 RMS     0.044762113

 GradGradGradGradGradGradGradGradGradGradGradGradGradGradGradGradGradGrad
 Berny optimization.
 FormGI is forming the generalized inverse of G from B-inverse, IUseBI=4.
 Internal  Forces:  Max     0.064576344 RMS     0.023544077
 Search for a saddle point.
 Step number   3 out of a maximum of   36
 All quantities printed in internal units (Hartrees-Bohrs-Radians)
 Update second derivatives using D2CorX and points    2    3
 ITU=  0  0  0
 LST/QST climbing along tangent vector
     Eigenvalues ---   -0.02342   0.00198   0.01436   0.02299   0.02898
     Eigenvalues ---    0.04089   0.04824   0.05468   0.22539   0.39452
     Eigenvalues ---    0.39532   0.838441000.000001000.000001000.00000
     Eigenvalues --- 1000.000001000.000001000.000001000.000001000.00000
     Eigenvalues --- 1000.000001000.000001000.000001000.000001000.00000
     Eigenvalues --- 1000.00000
 Eigenvectors required to have negative eigenvalues:
                          A12       D7        A11       A10       R6
   1                    0.47759  -0.41929  -0.41929   0.35234   0.34660
                          R5        A3        A9        A5        A8
   1                   -0.29403   0.14668  -0.12524  -0.12388  -0.10908
 QST in optimization variable space.
 Eigenvectors 1 and   2 swapped, overlap=  1.0000
                        Tangent   TS vect  // Eig F  Eigenval
   1         R1         0.03202  -0.03202  -0.09538   0.00198
   2         R2         0.00241  -0.00241  -0.02151  -0.02342
   3         R3         0.00238  -0.00238  -0.00795   0.01436
   4         R4        -0.52101   0.52101  -0.00335   0.02299
   5         R5         0.35932  -0.35932   0.00736   0.02898
   6         R6         0.40174  -0.40174  -0.00441   0.04089
   7         R7        -0.02043   0.02043  -0.00319   0.04824
   8         A1         0.08500  -0.08500   0.00488   0.05468
   9         A2         0.03909  -0.03909   0.01781   0.22539
  10         A3         0.28801  -0.28801   0.00338   0.39452
  11         A4        -0.00727   0.00727   0.00765   0.39532
  12         A5        -0.04195   0.04195  -0.01723   0.83844
  13         A6         0.01412  -0.01412  -0.000001000.00000
  14         A7        -0.01657   0.01657  -0.000001000.00000
  15         A8        -0.00048   0.00048  -0.000001000.00000
  16         A9        -0.36105   0.36105   0.000001000.00000
  17         A10       -0.35269   0.35269   0.000001000.00000
  18         A11        0.01330  -0.01330   0.000001000.00000
  19         A12        0.00836  -0.00836   0.000001000.00000
  20         D1        -0.10109   0.10109   0.000001000.00000
  21         D2         0.10861  -0.10861   0.000001000.00000
  22         D3        -0.25196   0.25196   0.000001000.00000
  23         D4         0.02070  -0.02070   0.000001000.00000
  24         D5         0.03573  -0.03573  -0.000001000.00000
  25         D6         0.01503  -0.01503  -0.000001000.00000
  26         D7         0.01330  -0.01330   0.000001000.00000
 RFO step:  Lambda0=9.637617027D-02 Lambda=-3.74715465D-02.
 Linear search not attempted -- option 19 set.
 Maximum step size (   0.300) exceeded in Quadratic search.
    -- Step size scaled by   0.251
 Iteration  1 RMS(Cart)=  0.05091007 RMS(Int)=  0.00371455
 Iteration  2 RMS(Cart)=  0.00189102 RMS(Int)=  0.00144451
 Iteration  3 RMS(Cart)=  0.00000721 RMS(Int)=  0.00144446
 Iteration  4 RMS(Cart)=  0.00000001 RMS(Int)=  0.00144446
 Variable       Old X    -DE/DX   Delta X   Delta X   Delta X     New X
                                 (Linear)    (Quad)   (Total)
    R1        2.58939   0.04098   0.00000   0.00077   0.00135   2.59074
    R2        2.02615   0.01224   0.00000   0.00280   0.00280   2.02895
    R3        2.02761   0.01173   0.00000   0.00368   0.00368   2.03129
    R4        3.03831  -0.04519   0.00000   0.12684   0.12550   3.16381
    R5        4.33912   0.06458   0.00000  -0.01913  -0.01799   4.32114
    R6        2.68816   0.01711   0.00000  -0.18442  -0.18449   2.50367
    R7        2.21026  -0.02661   0.00000  -0.00101  -0.00193   2.20832
    A1        2.00870   0.00824   0.00000  -0.01996  -0.02091   1.98779
    A2        2.03827   0.00107   0.00000  -0.01053  -0.01124   2.02703
    A3        0.98417   0.01241   0.00000  -0.10684  -0.10482   0.87934
    A4        2.10453  -0.00439   0.00000  -0.00790  -0.00877   2.09575
    A5        1.46963   0.00531   0.00000   0.03556   0.03420   1.50384
    A6        2.02592  -0.00230   0.00000  -0.02368  -0.02236   2.00356
    A7        1.77477  -0.00670   0.00000  -0.00121  -0.00128   1.77350
    A8        2.14850   0.00478   0.00000   0.02510   0.02204   2.17054
    A9        1.22644  -0.03621   0.00000   0.10968   0.11332   1.33976
   A10        3.92960  -0.05194   0.00000   0.01556   0.01725   3.94685
   A11        2.52781   0.01295   0.00000   0.06165   0.06098   2.58879
   A12        2.70317  -0.01574   0.00000  -0.09412  -0.09607   2.60710
    D1       -1.10949  -0.01038   0.00000   0.01933   0.01858  -1.09091
    D2        1.50769  -0.00279   0.00000  -0.05278  -0.05229   1.45541
    D3       -2.58686  -0.01213   0.00000   0.08014   0.07939  -2.50747
    D4       -2.18861   0.00107   0.00000  -0.00545  -0.00394  -2.19255
    D5        1.99880   0.00461   0.00000  -0.00379  -0.00143   1.99737
    D6       -2.09577   0.00354   0.00000   0.00166   0.00251  -2.09326
    D7        2.52781   0.01295   0.00000   0.06165   0.06098   2.58879
         Item               Value     Threshold  Converged?
 Maximum Force            0.064576     0.000450     NO 
 RMS     Force            0.023544     0.000300     NO 
 Maximum Displacement     0.194777     0.001800     NO 
 RMS     Displacement     0.050807     0.001200     NO 
 Predicted change in Energy= 1.168911D-02
 GradGradGradGradGradGradGradGradGradGradGradGradGradGradGradGradGradGrad

                          Input orientation:                          
 ---------------------------------------------------------------------
 Center     Atomic      Atomic             Coordinates (Angstroms)
 Number     Number       Type             X           Y           Z
 ---------------------------------------------------------------------
      1          6           0        1.110888   -0.025405   -0.475698
      2          6           0       -0.060183   -0.019667    0.237109
      3          1           0        1.606748    0.926454   -0.505069
      4          1           0        1.687010   -0.931867   -0.432727
      5          1           0        0.851315    0.286296    1.148637
      6          7           0       -1.152230    0.081377   -0.166423
 ---------------------------------------------------------------------
                    Distance matrix (angstroms):
                    1          2          3          4          5
     1  C    0.000000
     2  C    1.370961   0.000000
     3  H    1.073673   2.055391   0.000000
     4  H    1.074913   2.081700   1.861459   0.000000
     5  H    1.674216   1.324887   1.927493   2.164029   0.000000
     6  N    2.286647   1.168595   2.905305   3.026362   2.405320
                    6
     6  N    0.000000
 Stoichiometry    C2H3N
 Framework group  C1[X(C2H3N)]
 Deg. of freedom    12
 Full point group                 C1      NOp   1
 Largest Abelian subgroup         C1      NOp   1
 Largest concise Abelian subgroup C1      NOp   1
                         Standard orientation:                         
 ---------------------------------------------------------------------
 Center     Atomic      Atomic             Coordinates (Angstroms)
 Number     Number       Type             X           Y           Z
 ---------------------------------------------------------------------
      1          6           0       -1.038944   -0.250599    0.020902
      2          6           0        0.204919    0.313317   -0.098823
      3          1           0       -1.500814   -0.086208    0.976112
      4          1           0       -1.638295   -0.269306   -0.871212
      5          1           0       -0.585790    1.359693    0.088796
      6          7           0        1.247007   -0.197212    0.039119
 ---------------------------------------------------------------------
 Rotational constants (GHZ):          80.6168051          12.0132537          11.3199577
 Standard basis: 6-311+G(2d,p) (5D, 7F)
 There are   105 symmetry adapted cartesian basis functions of A   symmetry.
 There are    99 symmetry adapted basis functions of A   symmetry.
    99 basis functions,   150 primitive gaussians,   105 cartesian basis functions
    11 alpha electrons       11 beta electrons
       nuclear repulsion energy        60.7504924053 Hartrees.
 NAtoms=    6 NActive=    6 NUniq=    6 SFac= 1.00D+00 NAtFMM=   60 NAOKFM=F Big=F
 Integral buffers will be    131072 words long.
 Raffenetti 2 integral format.
 Two-electron integral symmetry is turned on.
 R6APFD:  NTU= -4 IXU= 1 FactS= 1.050
 Nuclear repulsion after empirical dispersion term =       60.7499926671 Hartrees.
 One-electron integrals computed using PRISM.
 NBasis=    99 RedAO= T EigKep=  1.39D-04  NBF=    99
 NBsUse=    99 1.00D-06 EigRej= -1.00D+00 NBFU=    99
 Initial guess from the checkpoint file:  "e3_04_qst3.chk"
 B after Tr=     0.000000   -0.000000    0.000000
         Rot=    0.999588   -0.026785   -0.002001    0.010120 Ang=  -3.29 deg.
 ExpMin= 4.38D-02 ExpMax= 6.29D+03 ExpMxC= 9.49D+02 IAcc=3 IRadAn=         5 AccDes= 0.00D+00
 Harris functional with IExCor= 3731 and IRadAn=       5 diagonalized for initial guess.
 HarFok:  IExCor= 3731 AccDes= 0.00D+00 IRadAn=         5 IDoV= 1 UseB2=F ITyADJ=14
 ICtDFT=  3500011 ScaDFX=  1.000000  1.000000  1.000000  1.000000
 FoFCou: FMM=F IPFlag=           0 FMFlag=      100000 FMFlg1=           0
         NFxFlg=           0 DoJE=T BraDBF=F KetDBF=T FulRan=T
         wScrn=  0.000000 ICntrl=       500 IOpCl=  0 I1Cent=   200000004 NGrid=           0
         NMat0=    1 NMatS0=      1 NMatT0=    0 NMatD0=    1 NMtDS0=    0 NMtDT0=    0
 Petite list used in FoFCou.
 Keep R1 ints in memory in canonical form, NReq=27144983.
 Requested convergence on RMS density matrix=1.00D-08 within 128 cycles.
 Requested convergence on MAX density matrix=1.00D-06.
 Requested convergence on             energy=1.00D-06.
 No special actions if energy rises.
 SCF Done:  E(RAPFD) =  -132.476152714     A.U. after   11 cycles
            NFock= 11  Conv=0.84D-08     -V/T= 2.0012
 R6APFD:  NTU= -4 IXU= 1 FactS= 1.050
 Calling FoFJK, ICntrl=      2127 FMM=F ISym2X=0 I1Cent= 0 IOpClX= 0 NMat=1 NMatS=1 NMatT=0.
 ***** Axes restored to original set *****
 -------------------------------------------------------------------
 Center     Atomic                   Forces (Hartrees/Bohr)
 Number     Number              X              Y              Z
 -------------------------------------------------------------------
      1        6           0.102173259    0.001140326    0.049551982
      2        6          -0.067956714    0.003371605   -0.061397882
      3        1           0.010616505    0.007327347   -0.013083347
      4        1           0.014929741   -0.004285973   -0.001116036
      5        1           0.012230523   -0.010982159   -0.028118375
      6        7          -0.071993315    0.003428854    0.054163657
 -------------------------------------------------------------------
 Cartesian Forces:  Max     0.102173259 RMS     0.041542933

 GradGradGradGradGradGradGradGradGradGradGradGradGradGradGradGradGradGrad
 Berny optimization.
 FormGI is forming the generalized inverse of G from B-inverse, IUseBI=4.
 Internal  Forces:  Max     0.076255883 RMS     0.023653355
 Search for a saddle point.
 Step number   4 out of a maximum of   36
 All quantities printed in internal units (Hartrees-Bohrs-Radians)
 Update second derivatives using D2CorX and points    3    4
 ITU=  0  0  0  0
 LST/QST climbing along tangent vector
     Eigenvalues ---   -0.01753  -0.00550   0.01272   0.02154   0.02816
     Eigenvalues ---    0.04063   0.04648   0.05377   0.22037   0.39452
     Eigenvalues ---    0.39531   0.831051000.000001000.000001000.00000
     Eigenvalues --- 1000.000001000.000001000.000001000.000001000.00000
     Eigenvalues --- 1000.000001000.000001000.000001000.000001000.00000
     Eigenvalues --- 1000.00000
 Eigenvectors required to have negative eigenvalues:
                          A12       A11       D7        R6        A10
   1                    0.48510  -0.38696  -0.38696   0.37962   0.35381
                          R5        A3        A9        A5        A7
   1                   -0.32590   0.14876  -0.13129  -0.12920  -0.08514
 QST in optimization variable space.
 Eigenvectors 1 and   2 swapped, overlap=  1.0000
                        Tangent   TS vect  // Eig F  Eigenval
   1         R1         0.02903  -0.02903  -0.08652  -0.00550
   2         R2         0.00099  -0.00099  -0.02817  -0.01753
   3         R3         0.00105  -0.00105  -0.00741   0.01272
   4         R4        -0.52851   0.52851   0.00336   0.02154
   5         R5         0.37329  -0.37329   0.00622   0.02816
   6         R6         0.38269  -0.38269  -0.00333   0.04063
   7         R7        -0.01784   0.01784  -0.00321   0.04648
   8         A1         0.07598  -0.07598   0.00532   0.05377
   9         A2         0.03988  -0.03988   0.02367   0.22037
  10         A3         0.27566  -0.27566   0.00337   0.39452
  11         A4        -0.00997   0.00997   0.00783   0.39531
  12         A5        -0.06296   0.06296  -0.01357   0.83105
  13         A6         0.01200  -0.01200   0.000001000.00000
  14         A7        -0.02575   0.02575   0.000001000.00000
  15         A8         0.00086  -0.00086  -0.000001000.00000
  16         A9        -0.38989   0.38989  -0.000001000.00000
  17         A10       -0.37189   0.37189  -0.000001000.00000
  18         A11       -0.01307   0.01307   0.000001000.00000
  19         A12        0.01800  -0.01800   0.000001000.00000
  20         D1        -0.06745   0.06745   0.000001000.00000
  21         D2         0.09041  -0.09041  -0.000001000.00000
  22         D3        -0.20043   0.20043  -0.000001000.00000
  23         D4         0.00791  -0.00791   0.000001000.00000
  24         D5         0.03165  -0.03165  -0.000001000.00000
  25         D6         0.02374  -0.02374   0.000001000.00000
  26         D7        -0.01307   0.01307  -0.000001000.00000
 RFO step:  Lambda0=8.381465670D-02 Lambda=-4.00742267D-02.
 Linear search not attempted -- option 19 set.
 Maximum step size (   0.300) exceeded in Quadratic search.
    -- Step size scaled by   0.254
 Iteration  1 RMS(Cart)=  0.05140570 RMS(Int)=  0.00361754
 Iteration  2 RMS(Cart)=  0.00196989 RMS(Int)=  0.00150368
 Iteration  3 RMS(Cart)=  0.00000554 RMS(Int)=  0.00150365
 Iteration  4 RMS(Cart)=  0.00000001 RMS(Int)=  0.00150365
 Variable       Old X    -DE/DX   Delta X   Delta X   Delta X     New X
                                 (Linear)    (Quad)   (Total)
    R1        2.59074   0.04435   0.00000   0.00584   0.00693   2.59767
    R2        2.02895   0.01176   0.00000   0.00301   0.00301   2.03196
    R3        2.03129   0.01157   0.00000   0.00383   0.00383   2.03512
    R4        3.16381  -0.03440   0.00000   0.12718   0.12505   3.28886
    R5        4.32114   0.07626   0.00000  -0.01016  -0.00911   4.31202
    R6        2.50367   0.00578   0.00000  -0.18108  -0.18046   2.32322
    R7        2.20832  -0.01851   0.00000  -0.00020  -0.00102   2.20730
    A1        1.98779   0.00751   0.00000  -0.01627  -0.01693   1.97085
    A2        2.02703   0.00212   0.00000  -0.00887  -0.00896   2.01807
    A3        0.87934   0.00650   0.00000  -0.10278  -0.10101   0.77834
    A4        2.09575  -0.00584   0.00000  -0.00884  -0.00957   2.08618
    A5        1.50384   0.00631   0.00000   0.04120   0.03981   1.54365
    A6        2.00356  -0.00174   0.00000  -0.01839  -0.01650   1.98706
    A7        1.77350  -0.00394   0.00000   0.00609   0.00639   1.77989
    A8        2.17054   0.00373   0.00000   0.01820   0.01547   2.18601
    A9        1.33976  -0.03316   0.00000   0.11665   0.12074   1.46050
   A10        3.94685  -0.05204   0.00000   0.01866   0.02063   3.96748
   A11        2.58879   0.01346   0.00000   0.06191   0.06110   2.64988
   A12        2.60710  -0.01888   0.00000  -0.09799  -0.10011   2.50698
    D1       -1.09091  -0.00738   0.00000   0.01088   0.01036  -1.08054
    D2        1.45541  -0.00367   0.00000  -0.04407  -0.04390   1.41150
    D3       -2.50747  -0.00896   0.00000   0.06120   0.06068  -2.44679
    D4       -2.19255   0.00012   0.00000  -0.00170  -0.00001  -2.19256
    D5        1.99737   0.00500   0.00000  -0.00109   0.00085   1.99823
    D6       -2.09326   0.00488   0.00000   0.00061   0.00086  -2.09240
    D7        2.58879   0.01346   0.00000   0.06191   0.06110   2.64988
         Item               Value     Threshold  Converged?
 Maximum Force            0.076256     0.000450     NO 
 RMS     Force            0.023653     0.000300     NO 
 Maximum Displacement     0.200624     0.001800     NO 
 RMS     Displacement     0.051184     0.001200     NO 
 Predicted change in Energy= 5.592815D-03
 GradGradGradGradGradGradGradGradGradGradGradGradGradGradGradGradGradGrad

                          Input orientation:                          
 ---------------------------------------------------------------------
 Center     Atomic      Atomic             Coordinates (Angstroms)
 Number     Number       Type             X           Y           Z
 ---------------------------------------------------------------------
      1          6           0        1.121796   -0.031826   -0.506045
      2          6           0       -0.024787   -0.017177    0.252071
      3          1           0        1.614400    0.923402   -0.538830
      4          1           0        1.711036   -0.930991   -0.442076
      5          1           0        0.745149    0.272954    1.165543
      6          7           0       -1.124046    0.100826   -0.124834
 ---------------------------------------------------------------------
                    Distance matrix (angstroms):
                    1          2          3          4          5
     1  C    0.000000
     2  C    1.374630   0.000000
     3  H    1.075264   2.048694   0.000000
     4  H    1.076938   2.080860   1.859428   0.000000
     5  H    1.740391   1.229394   2.020784   2.228645   0.000000
     6  N    2.281825   1.168055   2.889137   3.033641   2.277848
                    6
     6  N    0.000000
 Stoichiometry    C2H3N
 Framework group  C1[X(C2H3N)]
 Deg. of freedom    12
 Full point group                 C1      NOp   1
 Largest Abelian subgroup         C1      NOp   1
 Largest concise Abelian subgroup C1      NOp   1
                         Standard orientation:                         
 ---------------------------------------------------------------------
 Center     Atomic      Atomic             Coordinates (Angstroms)
 Number     Number       Type             X           Y           Z
 ---------------------------------------------------------------------
      1          6           0       -1.047525   -0.247731    0.011272
      2          6           0        0.201134    0.318640   -0.087126
      3          1           0       -1.491859   -0.115980    0.981530
      4          1           0       -1.663367   -0.173462   -0.869079
      5          1           0       -0.404336    1.364375    0.139265
      6          7           0        1.233987   -0.214341    0.029059
 ---------------------------------------------------------------------
 Rotational constants (GHZ):          79.6647404          12.1185900          11.3879390
 Standard basis: 6-311+G(2d,p) (5D, 7F)
 There are   105 symmetry adapted cartesian basis functions of A   symmetry.
 There are    99 symmetry adapted basis functions of A   symmetry.
    99 basis functions,   150 primitive gaussians,   105 cartesian basis functions
    11 alpha electrons       11 beta electrons
       nuclear repulsion energy        60.9234402508 Hartrees.
 NAtoms=    6 NActive=    6 NUniq=    6 SFac= 1.00D+00 NAtFMM=   60 NAOKFM=F Big=F
 Integral buffers will be    131072 words long.
 Raffenetti 2 integral format.
 Two-electron integral symmetry is turned on.
 R6APFD:  NTU= -4 IXU= 1 FactS= 1.050
 Nuclear repulsion after empirical dispersion term =       60.9229795056 Hartrees.
 One-electron integrals computed using PRISM.
 NBasis=    99 RedAO= T EigKep=  1.40D-04  NBF=    99
 NBsUse=    99 1.00D-06 EigRej= -1.00D+00 NBFU=    99
 Initial guess from the checkpoint file:  "e3_04_qst3.chk"
 B after Tr=    -0.000000   -0.000000   -0.000000
         Rot=    0.999656   -0.023885   -0.002015    0.010651 Ang=  -3.01 deg.
 ExpMin= 4.38D-02 ExpMax= 6.29D+03 ExpMxC= 9.49D+02 IAcc=3 IRadAn=         5 AccDes= 0.00D+00
 Harris functional with IExCor= 3731 and IRadAn=       5 diagonalized for initial guess.
 HarFok:  IExCor= 3731 AccDes= 0.00D+00 IRadAn=         5 IDoV= 1 UseB2=F ITyADJ=14
 ICtDFT=  3500011 ScaDFX=  1.000000  1.000000  1.000000  1.000000
 FoFCou: FMM=F IPFlag=           0 FMFlag=      100000 FMFlg1=           0
         NFxFlg=           0 DoJE=T BraDBF=F KetDBF=T FulRan=T
         wScrn=  0.000000 ICntrl=       500 IOpCl=  0 I1Cent=   200000004 NGrid=           0
         NMat0=    1 NMatS0=      1 NMatT0=    0 NMatD0=    1 NMtDS0=    0 NMtDT0=    0
 Petite list used in FoFCou.
 Keep R1 ints in memory in canonical form, NReq=27144983.
 Requested convergence on RMS density matrix=1.00D-08 within 128 cycles.
 Requested convergence on MAX density matrix=1.00D-06.
 Requested convergence on             energy=1.00D-06.
 No special actions if energy rises.
 EnCoef did     6 forward-backward iterations
 SCF Done:  E(RAPFD) =  -132.470112657     A.U. after   12 cycles
            NFock= 12  Conv=0.60D-08     -V/T= 2.0006
 R6APFD:  NTU= -4 IXU= 1 FactS= 1.050
 Calling FoFJK, ICntrl=      2127 FMM=F ISym2X=0 I1Cent= 0 IOpClX= 0 NMat=1 NMatS=1 NMatT=0.
 ***** Axes restored to original set *****
 -------------------------------------------------------------------
 Center     Atomic                   Forces (Hartrees/Bohr)
 Number     Number              X              Y              Z
 -------------------------------------------------------------------
      1        6           0.107106412   -0.004593111    0.023210040
      2        6          -0.052526794    0.004377145   -0.046264311
      3        1           0.012162048    0.005773801   -0.009608253
      4        1           0.015932643   -0.002687738    0.000182224
      5        1           0.006589589   -0.008558962   -0.020162682
      6        7          -0.089263898    0.005688865    0.052642982
 -------------------------------------------------------------------
 Cartesian Forces:  Max     0.107106412 RMS     0.039985953

 GradGradGradGradGradGradGradGradGradGradGradGradGradGradGradGradGradGrad
 Berny optimization.
 FormGI is forming the generalized inverse of G from B-inverse, IUseBI=4.
 Internal  Forces:  Max     0.085400787 RMS     0.023647104
 Search for a saddle point.
 Step number   5 out of a maximum of   36
 All quantities printed in internal units (Hartrees-Bohrs-Radians)
 Update second derivatives using D2CorX and points    4    5
 ITU=  0  0  0  0  0
     Eigenvalues ---   -0.04729  -0.00134   0.01739   0.02883   0.03259
     Eigenvalues ---    0.04084   0.05119   0.05594   0.23525   0.39456
     Eigenvalues ---    0.39539   0.831091000.000001000.000001000.00000
     Eigenvalues --- 1000.000001000.000001000.000001000.000001000.00000
     Eigenvalues --- 1000.000001000.000001000.000001000.000001000.00000
     Eigenvalues --- 1000.00000
 Eigenvectors required to have negative eigenvalues:
                          R4        R6        A9        A3        A12
   1                    0.54979  -0.43711   0.41408  -0.30512  -0.29909
                          D3        D1        A10       R1        D7
   1                    0.24797   0.14405   0.11499   0.09179   0.08683
 QST in optimization variable space.
                        Tangent   TS vect  // Eig F  Eigenval
   1         R1         0.02414   0.09179  -0.01992  -0.04729
   2         R2        -0.00009   0.00485   0.05339  -0.00134
   3         R3         0.00014   0.00800  -0.01886   0.01739
   4         R4        -0.52697   0.54979  -0.00169   0.02883
   5         R5         0.39074   0.00931  -0.04701   0.03259
   6         R6         0.34971  -0.43711  -0.00076   0.04084
   7         R7        -0.01521   0.05431  -0.01771   0.05119
   8         A1         0.06430  -0.06306  -0.04009   0.05594
   9         A2         0.03645  -0.03347   0.07923   0.23525
  10         A3         0.26085  -0.30512   0.00661   0.39456
  11         A4        -0.01443  -0.05841   0.01726   0.39539
  12         A5        -0.07998   0.04602  -0.01353   0.83109
  13         A6         0.00406  -0.02458  -0.000001000.00000
  14         A7        -0.03599   0.04741  -0.000001000.00000
  15         A8         0.00241   0.04054  -0.000001000.00000
  16         A9        -0.41714   0.41408  -0.000001000.00000
  17         A10       -0.39610   0.11499  -0.000001000.00000
  18         A11       -0.03272   0.08683  -0.000001000.00000
  19         A12        0.02104  -0.29909  -0.000001000.00000
  20         D1        -0.03765   0.14405  -0.000001000.00000
  21         D2         0.07266  -0.08679   0.000001000.00000
  22         D3        -0.15052   0.24797   0.000001000.00000
  23         D4        -0.00687  -0.07183  -0.000001000.00000
  24         D5         0.02953  -0.02672  -0.000001000.00000
  25         D6         0.03639   0.04510   0.000001000.00000
  26         D7        -0.03272   0.08683   0.000001000.00000
 RFO step:  Lambda0=7.272747906D-03 Lambda=-8.82140442D-02.
 Linear search not attempted -- option 19 set.
 Maximum step size (   0.300) exceeded in Quadratic search.
    -- Step size scaled by   0.268
 Iteration  1 RMS(Cart)=  0.05422893 RMS(Int)=  0.00722719
 Iteration  2 RMS(Cart)=  0.00428915 RMS(Int)=  0.00236007
 Iteration  3 RMS(Cart)=  0.00003208 RMS(Int)=  0.00235952
 Iteration  4 RMS(Cart)=  0.00000011 RMS(Int)=  0.00235952
 Variable       Old X    -DE/DX   Delta X   Delta X   Delta X     New X
                                 (Linear)    (Quad)   (Total)
    R1        2.59767   0.04385   0.00000   0.00936   0.01129   2.60896
    R2        2.03196   0.01099   0.00000   0.00512   0.00512   2.03707
    R3        2.03512   0.01097   0.00000   0.00633   0.00633   2.04145
    R4        3.28886  -0.02239   0.00000   0.01464   0.01483   3.30369
    R5        4.31202   0.08540   0.00000   0.15665   0.15428   4.46631
    R6        2.32322   0.00023   0.00000  -0.05261  -0.05279   2.27043
    R7        2.20730  -0.00749   0.00000  -0.01160  -0.00916   2.19814
    A1        1.97085   0.00670   0.00000   0.00883   0.00652   1.97737
    A2        2.01807   0.00265   0.00000   0.01505   0.01807   2.03614
    A3        0.77834   0.00359   0.00000  -0.02429  -0.02435   0.75399
    A4        2.08618  -0.00696   0.00000  -0.01442  -0.01498   2.07121
    A5        1.54365   0.00598   0.00000   0.03407   0.03281   1.57646
    A6        1.98706  -0.00094   0.00000  -0.01405  -0.00865   1.97841
    A7        1.77989  -0.00243   0.00000   0.01059   0.01266   1.79255
    A8        2.18601   0.00253   0.00000   0.01567   0.00864   2.19465
    A9        1.46050  -0.02947   0.00000   0.02224   0.02180   1.48229
   A10        3.96748  -0.05059   0.00000  -0.13737  -0.13946   3.82802
   A11        2.64988   0.01303   0.00000   0.11989   0.11826   2.76814
   A12        2.50698  -0.02112   0.00000  -0.15961  -0.16126   2.34573
    D1       -1.08054  -0.00492   0.00000  -0.02277  -0.02405  -1.10459
    D2        1.41150  -0.00440   0.00000  -0.01581  -0.01680   1.39470
    D3       -2.44679  -0.00622   0.00000  -0.01756  -0.01698  -2.46377
    D4       -2.19256  -0.00052   0.00000   0.01046   0.01321  -2.17935
    D5        1.99823   0.00547   0.00000   0.01649   0.01915   2.01738
    D6       -2.09240   0.00599   0.00000   0.00603   0.00594  -2.08646
    D7        2.64988   0.01303   0.00000   0.11989   0.11826   2.76814
         Item               Value     Threshold  Converged?
 Maximum Force            0.085401     0.000450     NO 
 RMS     Force            0.023647     0.000300     NO 
 Maximum Displacement     0.167047     0.001800     NO 
 RMS     Displacement     0.054942     0.001200     NO 
 Predicted change in Energy=-2.651730D-02
 GradGradGradGradGradGradGradGradGradGradGradGradGradGradGradGradGradGrad

                          Input orientation:                          
 ---------------------------------------------------------------------
 Center     Atomic      Atomic             Coordinates (Angstroms)
 Number     Number       Type             X           Y           Z
 ---------------------------------------------------------------------
      1          6           0        1.152069   -0.036385   -0.515987
      2          6           0       -0.026680   -0.016482    0.202495
      3          1           0        1.646551    0.920865   -0.550412
      4          1           0        1.755331   -0.928697   -0.433049
      5          1           0        0.673319    0.259303    1.139217
      6          7           0       -1.157042    0.118583   -0.036436
 ---------------------------------------------------------------------
                    Distance matrix (angstroms):
                    1          2          3          4          5
     1  C    0.000000
     2  C    1.380602   0.000000
     3  H    1.077973   2.060386   0.000000
     4  H    1.080289   2.100384   1.856472   0.000000
     5  H    1.748237   1.201459   2.059051   2.248135   0.000000
     6  N    2.363468   1.163207   2.961074   3.120258   2.179951
                    6
     6  N    0.000000
 Stoichiometry    C2H3N
 Framework group  C1[X(C2H3N)]
 Deg. of freedom    12
 Full point group                 C1      NOp   1
 Largest Abelian subgroup         C1      NOp   1
 Largest concise Abelian subgroup C1      NOp   1
                         Standard orientation:                         
 ---------------------------------------------------------------------
 Center     Atomic      Atomic             Coordinates (Angstroms)
 Number     Number       Type             X           Y           Z
 ---------------------------------------------------------------------
      1          6           0       -1.092410   -0.223452    0.011295
      2          6           0        0.200069    0.252211   -0.085170
      3          1           0       -1.528523   -0.078031    0.986325
      4          1           0       -1.719477   -0.103312   -0.860127
      5          1           0       -0.293151    1.327104    0.126591
      6          7           0        1.270743   -0.188331    0.027209
 ---------------------------------------------------------------------
 Rotational constants (GHZ):          92.5934337          11.3943652          10.9458092
 Standard basis: 6-311+G(2d,p) (5D, 7F)
 There are   105 symmetry adapted cartesian basis functions of A   symmetry.
 There are    99 symmetry adapted basis functions of A   symmetry.
    99 basis functions,   150 primitive gaussians,   105 cartesian basis functions
    11 alpha electrons       11 beta electrons
       nuclear repulsion energy        60.6201644993 Hartrees.
 NAtoms=    6 NActive=    6 NUniq=    6 SFac= 1.00D+00 NAtFMM=   60 NAOKFM=F Big=F
 Integral buffers will be    131072 words long.
 Raffenetti 2 integral format.
 Two-electron integral symmetry is turned on.
 R6APFD:  NTU= -4 IXU= 1 FactS= 1.050
 Nuclear repulsion after empirical dispersion term =       60.6197452059 Hartrees.
 One-electron integrals computed using PRISM.
 NBasis=    99 RedAO= T EigKep=  1.20D-04  NBF=    99
 NBsUse=    99 1.00D-06 EigRej= -1.00D+00 NBFU=    99
 Initial guess from the checkpoint file:  "e3_04_qst3.chk"
 B after Tr=     0.000000   -0.000000   -0.000000
         Rot=    0.999974    0.002720   -0.001272    0.006498 Ang=   0.82 deg.
 ExpMin= 4.38D-02 ExpMax= 6.29D+03 ExpMxC= 9.49D+02 IAcc=3 IRadAn=         5 AccDes= 0.00D+00
 Harris functional with IExCor= 3731 and IRadAn=       5 diagonalized for initial guess.
 HarFok:  IExCor= 3731 AccDes= 0.00D+00 IRadAn=         5 IDoV= 1 UseB2=F ITyADJ=14
 ICtDFT=  3500011 ScaDFX=  1.000000  1.000000  1.000000  1.000000
 FoFCou: FMM=F IPFlag=           0 FMFlag=      100000 FMFlg1=           0
         NFxFlg=           0 DoJE=T BraDBF=F KetDBF=T FulRan=T
         wScrn=  0.000000 ICntrl=       500 IOpCl=  0 I1Cent=   200000004 NGrid=           0
         NMat0=    1 NMatS0=      1 NMatT0=    0 NMatD0=    1 NMtDS0=    0 NMtDT0=    0
 Petite list used in FoFCou.
 Keep R1 ints in memory in canonical form, NReq=27144983.
 Requested convergence on RMS density matrix=1.00D-08 within 128 cycles.
 Requested convergence on MAX density matrix=1.00D-06.
 Requested convergence on             energy=1.00D-06.
 No special actions if energy rises.
 SCF Done:  E(RAPFD) =  -132.494423553     A.U. after   12 cycles
            NFock= 12  Conv=0.25D-08     -V/T= 2.0011
 R6APFD:  NTU= -4 IXU= 1 FactS= 1.050
 Calling FoFJK, ICntrl=      2127 FMM=F ISym2X=0 I1Cent= 0 IOpClX= 0 NMat=1 NMatS=1 NMatT=0.
 ***** Axes restored to original set *****
 -------------------------------------------------------------------
 Center     Atomic                   Forces (Hartrees/Bohr)
 Number     Number              X              Y              Z
 -------------------------------------------------------------------
      1        6           0.080784636   -0.004383377    0.021031869
      2        6          -0.028409691    0.003909589   -0.038044090
      3        1           0.009526123    0.004198787   -0.007631753
      4        1           0.010972936   -0.001287305    0.000718456
      5        1           0.009122053   -0.007412601   -0.016559454
      6        7          -0.081996058    0.004974907    0.040484971
 -------------------------------------------------------------------
 Cartesian Forces:  Max     0.081996058 RMS     0.031925406

 GradGradGradGradGradGradGradGradGradGradGradGradGradGradGradGradGradGrad
 Berny optimization.
 FormGI is forming the generalized inverse of G from B-inverse, IUseBI=4.
 Internal  Forces:  Max     0.069516223 RMS     0.018629349
 Search for a saddle point.
 Step number   6 out of a maximum of   36
 All quantities printed in internal units (Hartrees-Bohrs-Radians)
 Update second derivatives using D2CorX and points    4    5    6
 ITU=  0  0  0  0  0  0
     Eigenvalues ---   -0.05312   0.01114   0.02120   0.02858   0.04011
     Eigenvalues ---    0.04305   0.05192   0.06627   0.23520   0.39467
     Eigenvalues ---    0.39543   0.852531000.000001000.000001000.00000
     Eigenvalues --- 1000.000001000.000001000.000001000.000001000.00000
     Eigenvalues --- 1000.000001000.000001000.000001000.000001000.00000
     Eigenvalues --- 1000.00000
 Eigenvectors required to have negative eigenvalues:
                          R4        R6        A9        A3        A12
   1                    0.55978  -0.42978   0.42897  -0.30113  -0.26049
                          D3        A10       D1        D2        R1
   1                    0.25287   0.16848   0.14835  -0.08746   0.08097
 QST in optimization variable space.
                        Tangent   TS vect  // Eig F  Eigenval
   1         R1         0.03950   0.08097  -0.02266  -0.05312
   2         R2         0.00053   0.00506   0.01077   0.01114
   3         R3         0.00080   0.00546  -0.00666   0.02120
   4         R4        -0.51681   0.55978   0.00040   0.02858
[...]
     4   1    -0.05  -0.01   0.44    -0.07  -0.00   0.70    -0.65   0.22  -0.06
     5   1     0.00   0.76  -0.01     0.05   0.01  -0.11     0.00   0.00   0.00
     6   7    -0.00  -0.02   0.00     0.01   0.00   0.07    -0.00  -0.02   0.00
                      7                      8                      9
                      A                      A                      A
 Frequencies --   1106.9290              1414.8595              2038.6626
 Red. masses --      4.0961                 1.2162                 8.4969
 Frc consts  --      2.9570                 1.4344                20.8065
 IR Inten    --      5.2141                23.1962               273.8508
  Atom  AN      X      Y      Z        X      Y      Z        X      Y      Z
     1   6     0.39   0.00   0.04    -0.13  -0.00  -0.01    -0.16   0.00   0.00
     2   6    -0.11  -0.00  -0.07     0.01   0.00   0.00     0.65  -0.00  -0.00
     3   1     0.59   0.09  -0.01     0.57   0.40   0.05    -0.15   0.02   0.01
     4   1     0.59  -0.09  -0.01     0.58  -0.40   0.05    -0.15  -0.02   0.01
     5   1    -0.15  -0.00  -0.04     0.02  -0.00   0.01     0.52  -0.00  -0.21
     6   7    -0.31   0.00   0.03     0.03  -0.00  -0.00    -0.44   0.00   0.01
                     10                     11                     12
                      A                      A                      A
 Frequencies --   2672.1745              3186.0012              3298.0790
 Red. masses --      1.0743                 1.0489                 1.1212
 Frc consts  --      4.5198                 6.2732                 7.1855
 IR Inten    --     92.3904                 9.9292                 3.1065
  Atom  AN      X      Y      Z        X      Y      Z        X      Y      Z
     1   6    -0.00  -0.00  -0.01    -0.06  -0.00  -0.01     0.00  -0.10   0.00
     2   6     0.02  -0.00  -0.07     0.00  -0.00  -0.00    -0.00  -0.00   0.00
     3   1    -0.01   0.00   0.01     0.34  -0.62   0.05    -0.35   0.61  -0.05
     4   1    -0.01  -0.00   0.01     0.34   0.62   0.03     0.35   0.61   0.04
     5   1    -0.06   0.02   0.99     0.00   0.00   0.01     0.00   0.00  -0.00
     6   7    -0.01  -0.00  -0.00     0.00  -0.00  -0.00     0.00  -0.00   0.00

 -------------------
 - Thermochemistry -
 -------------------
 Temperature   298.150 Kelvin.  Pressure   1.00000 Atm.
 Atom     1 has atomic number  6 and mass  12.00000
 Atom     2 has atomic number  6 and mass  12.00000
 Atom     3 has atomic number  1 and mass   1.00783
 Atom     4 has atomic number  1 and mass   1.00783
 Atom     5 has atomic number  1 and mass   1.00783
 Atom     6 has atomic number  7 and mass  14.00307
 Molecular mass:    41.02655 amu.
 Principal axes and moments of inertia in atomic units:
                           1         2         3
     Eigenvalues --    10.95016 182.87219 184.69191
           X            1.00000  -0.00004  -0.00144
           Y            0.00004   1.00000  -0.00220
           Z            0.00144   0.00220   1.00000
 This molecule is an asymmetric top.
 Rotational symmetry number  1.
 Rotational temperatures (Kelvin)      7.90983     0.47363     0.46896
 Rotational constants (GHZ):         164.81419     9.86887     9.77163
    1 imaginary frequencies ignored.
 Zero-point vibrational energy      99472.6 (Joules/Mol)
                                   23.77451 (Kcal/Mol)
 Warning -- explicit consideration of   4 degrees of freedom as
           vibrations may cause significant error
 Vibrational temperatures:    532.95   582.38   769.52   850.63  1456.84
          (Kelvin)           1592.62  2035.67  2933.18  3844.66  4583.95
                             4745.20
 
 Zero-point correction=                           0.037887 (Hartree/Particle)
 Thermal correction to Energy=                    0.041795
 Thermal correction to Enthalpy=                  0.042739
 Thermal correction to Gibbs Free Energy=         0.013834
 Sum of electronic and zero-point Energies=           -132.491688
 Sum of electronic and thermal Energies=              -132.487780
 Sum of electronic and thermal Enthalpies=            -132.486836
 Sum of electronic and thermal Free Energies=         -132.515742
 
                     E (Thermal)             CV                S
                      KCal/Mol        Cal/Mol-Kelvin    Cal/Mol-Kelvin
 Total                   26.227             11.927             60.836
 Electronic               0.000              0.000              0.000
 Translational            0.889              2.981             37.062
 Rotational               0.889              2.981             20.542
 Vibrational             24.449              5.966              3.232
 Vibration     1          0.742              1.533              1.078
 Vibration     2          0.770              1.460              0.945
 Vibration     3          0.890              1.173              0.576
 Vibration     4          0.949              1.050              0.465
                       Q            Log10(Q)             Ln(Q)
 Total Bot       0.433394D-06         -6.363117        -14.651618
 Total V=0       0.115804D+12         11.063724         25.475165
 Vib (Bot)       0.609506D-17        -17.215022        -39.639053
 Vib (Bot)    1  0.491356D+00         -0.308604         -0.710586
 Vib (Bot)    2  0.438793D+00         -0.357740         -0.823728
 Vib (Bot)    3  0.297668D+00         -0.526268         -1.211777
 Vib (Bot)    4  0.254842D+00         -0.593729         -1.367113
 Vib (V=0)       0.162862D+01          0.211819          0.487731
 Vib (V=0)    1  0.120102D+01          0.079551          0.183172
 Vib (V=0)    2  0.116524D+01          0.066414          0.152924
 Vib (V=0)    3  0.108190D+01          0.034187          0.078718
 Vib (V=0)    4  0.106120D+01          0.025797          0.059399
 Electronic      0.100000D+01          0.000000          0.000000
 Translational   0.103288D+08          7.014051         16.150450
 Rotational      0.688420D+04          3.837854          8.836984
 ***** Axes restored to original set *****
 -------------------------------------------------------------------
 Center     Atomic                   Forces (Hartrees/Bohr)
 Number     Number              X              Y              Z
 -------------------------------------------------------------------
      1        6           0.000117455   -0.000068840   -0.000076772
      2        6           0.000179333   -0.000037808    0.000031622
      3        1          -0.000010330    0.000032444    0.000069268
      4        1           0.000004697   -0.000001654   -0.000022470
      5        1          -0.000030170    0.000056185   -0.000128976
      6        7          -0.000260986    0.000019673    0.000127329
 -------------------------------------------------------------------
 Cartesian Forces:  Max     0.000260986 RMS     0.000097445
 FormGI is forming the generalized inverse of G from B-inverse, IUseBI=4.

 GradGradGradGradGradGradGradGradGradGradGradGradGradGradGradGradGradGrad
 Berny optimization.
 Internal  Forces:  Max     0.000147957 RMS     0.000050135
 Search for a saddle point.
 Step number   1 out of a maximum of    2
 All quantities printed in internal units (Hartrees-Bohrs-Radians)
 Swapping is turned off.
 Second derivative matrix not updated -- analytic derivatives used.
 ITU=  0
     Eigenvalues ---   -0.10198   0.00446   0.00782   0.02662   0.04220
     Eigenvalues ---    0.05193   0.06090   0.16523   0.23146   0.37015
     Eigenvalues ---    0.37220   0.64209
 Eigenvectors required to have negative eigenvalues:
                          A12       R4        A9        A10       A3
   1                    0.64007  -0.53494  -0.40764   0.23243   0.15884
                          R1        R5        D6        A7        A5
   1                    0.13975   0.11543   0.08069  -0.06205  -0.06199
 Angle between quadratic step and forces=  66.17 degrees.
 Linear search not attempted -- option 19 set.
 Iteration  1 RMS(Cart)=  0.00169452 RMS(Int)=  0.00000409
 Iteration  2 RMS(Cart)=  0.00000289 RMS(Int)=  0.00000118
 Iteration  3 RMS(Cart)=  0.00000000 RMS(Int)=  0.00000118
 Variable       Old X    -DE/DX   Delta X   Delta X   Delta X     New X
                                 (Linear)    (Quad)   (Total)
    R1        2.59843  -0.00000   0.00000   0.00030   0.00030   2.59873
    R2        2.04187   0.00001   0.00000   0.00005   0.00005   2.04192
    R3        2.04192   0.00000   0.00000   0.00000   0.00000   2.04192
    R4        3.45208  -0.00004   0.00000   0.00057   0.00057   3.45265
    R5        4.87037   0.00014   0.00000   0.00073   0.00073   4.87110
    R6        2.21611  -0.00009   0.00000  -0.00068  -0.00068   2.21543
    R7        2.28156   0.00015   0.00000   0.00032   0.00032   2.28188
    A1        2.08242  -0.00002   0.00000  -0.00079  -0.00080   2.08162
    A2        2.08123   0.00001   0.00000   0.00040   0.00040   2.08163
    A3        0.69685  -0.00003   0.00000  -0.00040  -0.00040   0.69645
    A4        2.11695   0.00001   0.00000   0.00013   0.00012   2.11707
    A5        1.93603  -0.00004   0.00000  -0.00486  -0.00486   1.93117
    A6        2.07968  -0.00002   0.00000  -0.00135  -0.00135   2.07832
    A7        1.92865   0.00004   0.00000   0.00253   0.00253   1.93118
    A8        2.07755   0.00001   0.00000   0.00078   0.00078   2.07833
    A9        1.59284   0.00001   0.00000   0.00048   0.00048   1.59332
   A10        3.01571  -0.00002   0.00000   0.00075   0.00075   3.01645
   A11        3.14192   0.00000   0.00000  -0.00033  -0.00033   3.14159
   A12        1.42286  -0.00004   0.00000   0.00027   0.00027   1.42314
    D1       -1.53811   0.00006   0.00000   0.00739   0.00739  -1.53072
    D2        1.52723   0.00003   0.00000   0.00349   0.00349   1.53072
    D3       -3.06378   0.00003   0.00000   0.00402   0.00402  -3.05976
    D4       -1.93885  -0.00001   0.00000  -0.00429  -0.00429  -1.94315
    D5        1.94537  -0.00002   0.00000  -0.00222  -0.00222   1.94315
    D6       -2.39896  -0.00001   0.00000   0.00207   0.00207  -2.39689
    D7       -3.14126   0.00000   0.00000  -0.00033  -0.00033  -3.14159
         Item               Value     Threshold  Converged?
 Maximum Force            0.000148     0.000450     YES
 RMS     Force            0.000050     0.000300     YES
 Maximum Displacement     0.005580     0.001800     NO 
 RMS     Displacement     0.001695     0.001200     NO 
 Predicted change in Energy=-6.254430D-07
                           ----------------------------
                           ! Non-Optimized Parameters !
                           ! (Angstroms and Degrees)  !
 --------------------------                            --------------------------
 ! Name  Definition              Value          Derivative Info.                !
 --------------------------------------------------------------------------------
 ! R1    R(1,2)                  1.3752         -DE/DX =    0.0                 !
 ! R2    R(1,3)                  1.0805         -DE/DX =    0.0                 !
 ! R3    R(1,4)                  1.0805         -DE/DX =    0.0                 !
 ! R4    R(1,5)                  1.8271         -DE/DX =    0.0                 !
 ! R5    R(1,6)                  2.5777         -DE/DX =    0.0001              !
 ! R6    R(2,5)                  1.1724         -DE/DX =   -0.0001              !
 ! R7    R(2,6)                  1.2075         -DE/DX =    0.0001              !
 ! A1    A(2,1,3)              119.2681         -DE/DX =    0.0                 !
 ! A2    A(2,1,4)              119.2685         -DE/DX =    0.0                 !
 ! A3    A(2,1,5)               39.9035         -DE/DX =    0.0                 !
 ! A4    A(3,1,4)              121.2994         -DE/DX =    0.0                 !
 ! A5    A(3,1,5)              110.6479         -DE/DX =    0.0                 !
 ! A6    A(3,1,6)              119.0791         -DE/DX =    0.0                 !
 ! A7    A(4,1,5)              110.6483         -DE/DX =    0.0                 !
 ! A8    A(4,1,6)              119.0796         -DE/DX =    0.0                 !
 ! A9    A(1,2,5)               91.2903         -DE/DX =    0.0                 !
 ! A10   L(1,2,6,5,-1)         172.83           -DE/DX =    0.0                 !
 ! A11   L(1,2,6,5,-2)         180.0            -DE/DX =    0.0                 !
 ! A12   A(5,2,6)               81.5397         -DE/DX =    0.0                 !
 ! D1    D(3,1,2,5)            -87.7038         -DE/DX =    0.0001              !
 ! D2    D(4,1,2,5)             87.7039         -DE/DX =    0.0                 !
 ! D3    D(2,1,4,3)           -175.3115         -DE/DX =    0.0                 !
 ! D4    D(2,1,5,3)           -111.3341         -DE/DX =    0.0                 !
 ! D5    D(2,1,5,4)            111.3344         -DE/DX =    0.0                 !
 ! D6    D(3,1,5,4)           -137.3315         -DE/DX =    0.0                 !
 ! D7    D(1,2,5,6)           -180.0            -DE/DX =    0.0                 !
 --------------------------------------------------------------------------------
 GradGradGradGradGradGradGradGradGradGradGradGradGradGradGradGradGradGrad


 ----------------------------------------------------------------------

 Electric dipole moment (input orientation):
 (Debye = 10**-18 statcoulomb cm , SI units = C m)
                  (au)            (Debye)         (10**-30 SI)
   Tot        0.950655D+00      0.241632D+01      0.805999D+01
   x          0.943436D+00      0.239797D+01      0.799878D+01
   y          0.752504D-03      0.191267D-02      0.637999D-02
   z          0.116935D+00      0.297219D+00      0.991416D+00

 Dipole polarizability, Alpha (input orientation).
 (esu units = cm**3 , SI units = C**2 m**2 J**-1)
 Alpha(0;0):
               (au)            (10**-24 esu)      (10**-40 SI)
   iso        0.355656D+02      0.527028D+01      0.586398D+01
   aniso      0.350596D+02      0.519529D+01      0.578054D+01
   xx         0.551668D+02      0.817487D+01      0.909577D+01
   yx        -0.146936D+01     -0.217737D+00     -0.242265D+00
   yy         0.218699D+02      0.324079D+01      0.360587D+01
   zx        -0.101645D+02     -0.150622D+01     -0.167590D+01
   zy         0.960853D+00      0.142384D+00      0.158423D+00
   zz         0.296602D+02      0.439519D+01      0.489031D+01

 ----------------------------------------------------------------------

 Dipole orientation:
     6          1.13704374          0.00267624          2.33585574
     6          0.14516512          0.10734480         -0.06353381
     1          1.65020814          1.73780559          3.28202004
     1          1.26153196         -1.80037525          3.28608420
     1         -1.90828531          0.32165378          0.74178463
     7         -0.98203294          0.22523724         -2.04370135

 Electric dipole moment (dipole orientation):
 (Debye = 10**-18 statcoulomb cm , SI units = C m)
                  (au)            (Debye)         (10**-30 SI)
   Tot        0.950655D+00      0.241632D+01      0.805999D+01
   x          0.000000D+00      0.000000D+00      0.000000D+00
   y          0.000000D+00      0.000000D+00      0.000000D+00
   z          0.950655D+00      0.241632D+01      0.805999D+01

 Dipole polarizability, Alpha (dipole orientation).
 (esu units = cm**3 , SI units = C**2 m**2 J**-1)
 Alpha(0;0):
               (au)            (10**-24 esu)      (10**-40 SI)
   iso        0.355656D+02      0.527028D+01      0.586398D+01
   aniso      0.350596D+02      0.519529D+01      0.578054D+01
   xx         0.325293D+02      0.482034D+01      0.536335D+01
   yx        -0.113711D+01     -0.168502D+00     -0.187484D+00
   yy         0.218705D+02      0.324087D+01      0.360596D+01
   zx         0.129705D+02      0.192204D+01      0.213855D+01
   zy        -0.135503D+01     -0.200794D+00     -0.223414D+00
   zz         0.522971D+02      0.774964D+01      0.862263D+01

 ----------------------------------------------------------------------
 1\1\GINC-RHEL-HPC\Freq\RAPFD\6-311+G(2d,p)\C2H3N1\WANGZHE\11-Sep-2021\
 0\\#N Geom=AllCheck Guess=TCheck SCRF=Check GenChk RAPFD/6-311+G(2d,p)
  Freq\\Azirine\\0,1\C,1.3007054762,0.0019737497,-0.4450856101\C,-0.023
 9560385,0.0567240423,-0.0804151609\H,1.830352096,0.9203705188,-0.65371
 80756\H,1.8084966107,-0.9518075297,-0.447854861\H,0.2652222519,0.17122
 88489,1.0503012409\N,-1.1372725864,0.1186977999,0.3826015867\\Version=
 ES64L-G16RevB.01\State=1-A\HF=-132.5295754\RMSD=1.688e-09\RMSF=9.745e-
 05\ZeroPoint=0.0378871\Thermal=0.041795\Dipole=0.9434356,0.0007525,0.1
 169349\DipoleDeriv=-0.7007944,0.0029242,-0.0506443,0.0251145,0.0160436
 ,-0.0619938,0.1668262,-0.0649479,-0.5547038,0.8530802,-0.02534,-0.1448
 401,-0.0258157,-0.0118947,0.0023903,-0.1414812,0.0022186,-0.0125819,0.
 0896285,0.0210516,0.0384999,0.009884,0.0375231,0.000706,0.0618838,0.00
 39962,0.2052455,0.0887115,-0.0133815,0.0429242,0.0025832,0.0444188,0.0
 339587,0.0616216,0.0304105,0.1987928,0.7416205,-0.0347661,-0.2651978,-
 0.017862,0.1866495,0.0229763,-0.115923,0.0212699,0.3759861,-1.0722463,
 0.0495118,0.3792581,0.006096,-0.2727404,0.0019625,-0.0329274,0.0070527
 ,-0.2127386\Polar=55.1667691,-1.469363,21.869946,-10.1644721,0.960853,
 29.6601963\Quadrupole=-1.8585083,1.3306097,0.5278986,0.1077568,0.69117
 62,-0.1078167\PG=C01 [X(C2H3N1)]\NImag=1\\0.63464478,-0.01697120,0.627
 82095,-0.15787620,-0.06030211,0.06878482,-0.33600227,0.01671265,0.1309
 9057,1.00504541,0.01223762,-0.08670003,0.00456574,-0.04251339,0.119118
 10,0.08645245,0.00513513,-0.03117203,-0.30073214,0.02990073,0.36775406
 ,-0.11299196,-0.12506071,0.03733711,-0.02416818,-0.02445173,0.00617658
 ,0.12408435,-0.12763079,-0.27309282,0.05445151,0.00279954,0.00656698,-
 0.00268610,0.13464062,0.27957059,0.03174567,0.05238635,-0.02224908,0.0
 0897552,0.00142273,-0.01252466,-0.04066668,-0.05669272,0.02251373,-0.1
 0705527,0.12604796,0.00914643,-0.02369464,0.02591516,0.00073140,0.0098
 2942,-0.01265994,-0.00100407,0.11778620,0.12735489,-0.28980776,0.00388
 897,-0.00012037,0.00536000,-0.00143831,0.01163650,-0.01218430,-0.00069
 772,-0.13621049,0.29781197,0.00321109,0.00612174,-0.01135759,0.0089154
 0,-0.00560836,-0.01184040,-0.00359689,0.00424339,0.00353329,-0.0102805
 0,-0.00326749,0.01058841,-0.04042957,-0.00137709,-0.01809916,0.1180456
 5,-0.01258792,-0.10712956,-0.00176612,-0.00022423,-0.00002945,-0.00177
 003,0.00024784,-0.00005250,-0.05271253,-0.00002964,-0.00308049,-0.0011
 5205,-0.00874221,-0.00243507,-0.01890564,0.00131218,0.00065568,0.00371
 246,-0.00119751,-0.00018287,-0.00317613,0.00887623,0.00868045,-0.00411
 551,-0.00134196,-0.01561948,-0.07209595,-0.01936283,-0.19419087,0.0001
 3682,0.00082484,0.00249380,0.00038115,-0.00022476,0.00330524,0.0787677
 3,0.02269680,0.23250577,-0.03816571,0.00064839,-0.00149875,-0.73922598
 ,0.04140026,0.31450127,0.00501249,0.00307480,0.00097902,0.00490432,-0.
 00290836,0.00180340,-0.02136740,-0.00021904,-0.00307423,0.78884229,0.0
 0503912,0.02486015,-0.00145206,0.03186379,-0.04190997,-0.01200581,0.00
 192315,-0.00151613,-0.00013111,-0.00189519,-0.00099704,0.00168684,0.00
 506517,-0.00363768,-0.00259208,-0.04199604,0.02320067,0.04058250,-0.00
 199915,0.01161337,0.22394661,-0.01091801,-0.11802610,0.00061305,-0.000
 14092,0.00623292,0.00102559,0.00173931,0.00577105,0.04654295,-0.003175
 44,-0.02849445,-0.31271071,0.01449421,0.12290320\\-0.00011746,0.000068
 84,0.00007677,-0.00017933,0.00003781,-0.00003162,0.00001033,-0.0000324
 4,-0.00006927,-0.00000470,0.00000165,0.00002247,0.00003017,-0.00005618
 ,0.00012898,0.00026099,-0.00001967,-0.00012733\\\@


 THE PROBLEM WITH THE LADDER OF SUCCESS IS YOU CAN'T
 CLIMB IT WHILE YOU'RE TWIDDLING YOUR THUMBS.
 Job cpu time:       0 days  0 hours  3 minutes 24.7 seconds.
 Elapsed time:       0 days  0 hours  0 minutes 13.0 seconds.
 File lengths (MBytes):  RWF=     10 Int=      0 D2E=      0 Chk=      2 Scr=      1
 Normal termination of Gaussian 16 at Sat Sep 11 11:36:01 2021.
